 Entering Gaussian System, Link 0=g09
 Input=/home/mayank/Desktop/software/gaussian/Gview_and_Gaussian/g09/scratch/Q1/1/ethene1.com
 Output=/home/mayank/Desktop/software/gaussian/Gview_and_Gaussian/g09/scratch/Q1/1/ethene1.log
 Initial command:
 /home/mayank/Desktop/software/gaussian/Gview_and_Gaussian/g09/l1.exe "/home/mayank/Desktop/software/gaussian/Gview_and_Gaussian/g09/scratch/Gau-73441.inp" -scrdir="/home/mayank/Desktop/software/gaussian/Gview_and_Gaussian/g09/scratch/"
 Entering Link 1 = /home/mayank/Desktop/software/gaussian/Gview_and_Gaussian/g09/l1.exe PID=     73445.
  
 Copyright (c) 1988,1990,1992,1993,1995,1998,2003,2009,2013,
            Gaussian, Inc.  All Rights Reserved.
  
 This is part of the Gaussian(R) 09 program.  It is based on
 the Gaussian(R) 03 system (copyright 2003, Gaussian, Inc.),
 the Gaussian(R) 98 system (copyright 1998, Gaussian, Inc.),
 the Gaussian(R) 94 system (copyright 1995, Gaussian, Inc.),
 the Gaussian 92(TM) system (copyright 1992, Gaussian, Inc.),
 the Gaussian 90(TM) system (copyright 1990, Gaussian, Inc.),
 the Gaussian 88(TM) system (copyright 1988, Gaussian, Inc.),
 the Gaussian 86(TM) system (copyright 1986, Carnegie Mellon
 University), and the Gaussian 82(TM) system (copyright 1983,
 Carnegie Mellon University). Gaussian is a federally registered
 trademark of Gaussian, Inc.
  
 This software contains proprietary and confidential information,
 including trade secrets, belonging to Gaussian, Inc.
  
 This software is provided under written license and may be
 used, copied, transmitted, or stored only in accord with that
 written license.
  
 The following legend is applicable only to US Government
 contracts under FAR:
  
                    RESTRICTED RIGHTS LEGEND
  
 Use, reproduction and disclosure by the US Government is
 subject to restrictions as set forth in subparagraphs (a)
 and (c) of the Commercial Computer Software - Restricted
 Rights clause in FAR 52.227-19.
  
 Gaussian, Inc.
 340 Quinnipiac St., Bldg. 40, Wallingford CT 06492
  
  
 ---------------------------------------------------------------
 Warning -- This program may not be used in any manner that
 competes with the business of Gaussian, Inc. or will provide
 assistance to any competitor of Gaussian, Inc.  The licensee
 of this program is prohibited from giving any competitor of
 Gaussian, Inc. access to this program.  By using this program,
 the user acknowledges that Gaussian, Inc. is engaged in the
 business of creating and licensing software in the field of
 computational chemistry and represents and warrants to the
 licensee that it is not a competitor of Gaussian, Inc. and that
 it will not use this program in any manner prohibited above.
 ---------------------------------------------------------------
  

 Cite this work as:
 Gaussian 09, Revision D.01,
 M. J. Frisch, G. W. Trucks, H. B. Schlegel, G. E. Scuseria, 
 M. A. Robb, J. R. Cheeseman, G. Scalmani, V. Barone, B. Mennucci, 
 G. A. Petersson, H. Nakatsuji, M. Caricato, X. Li, H. P. Hratchian, 
 A. F. Izmaylov, J. Bloino, G. Zheng, J. L. Sonnenberg, M. Hada, 
 M. Ehara, K. Toyota, R. Fukuda, J. Hasegawa, M. Ishida, T. Nakajima, 
 Y. Honda, O. Kitao, H. Nakai, T. Vreven, J. A. Montgomery, Jr., 
 J. E. Peralta, F. Ogliaro, M. Bearpark, J. J. Heyd, E. Brothers, 
 K. N. Kudin, V. N. Staroverov, T. Keith, R. Kobayashi, J. Normand, 
 K. Raghavachari, A. Rendell, J. C. Burant, S. S. Iyengar, J. Tomasi, 
 M. Cossi, N. Rega, J. M. Millam, M. Klene, J. E. Knox, J. B. Cross, 
 V. Bakken, C. Adamo, J. Jaramillo, R. Gomperts, R. E. Stratmann, 
 O. Yazyev, A. J. Austin, R. Cammi, C. Pomelli, J. W. Ochterski, 
 R. L. Martin, K. Morokuma, V. G. Zakrzewski, G. A. Voth, 
 P. Salvador, J. J. Dannenberg, S. Dapprich, A. D. Daniels, 
 O. Farkas, J. B. Foresman, J. V. Ortiz, J. Cioslowski, 
 and D. J. Fox, Gaussian, Inc., Wallingford CT, 2013.
 
 ******************************************
 Gaussian 09:  AM64L-G09RevD.01 24-Apr-2013
                19-Feb-2025 
 ******************************************
 %chk=ethene1.chk
 --------------------------------------
 # opt freq hf/sto-3g geom=connectivity
 --------------------------------------
 1/18=20,19=15,38=1,57=2/1,3;
 2/9=110,12=2,17=6,18=5,40=1/2;
 3/6=3,11=9,16=1,25=1,30=1,71=1/1,2,3;
 4//1;
 5/5=2,38=5/2;
 6/7=2,8=2,9=2,10=2,28=1/1;
 7//1,2,3,16;
 1/18=20,19=15/3(2);
 2/9=110/2;
 99//99;
 2/9=110/2;
 3/6=3,11=9,16=1,25=1,30=1,71=1/1,2,3;
 4/5=5,16=3,69=1/1;
 5/5=2,38=5/2;
 7//1,2,3,16;
 1/18=20,19=15/3(-5);
 2/9=110/2;
 6/7=2,8=2,9=2,10=2,19=2,28=1/1;
 99/9=1/99;
 -------------------
 Title Card Required
 -------------------
 Symbolic Z-matrix:
 Charge =  0 Multiplicity = 1
 C                    -1.33385   1.54799   0. 
 C                    -0.05621   1.0961    0. 
 H                     0.75716   1.79131   0. 
 H                    -1.52924   2.6       0. 
 H                     0.13918   0.04409   0. 
 H                    -2.14722   0.85277   0. 
 

 GradGradGradGradGradGradGradGradGradGradGradGradGradGradGradGradGradGrad
 Berny optimization.
 Initialization pass.
                           ----------------------------
                           !    Initial Parameters    !
                           ! (Angstroms and Degrees)  !
 --------------------------                            --------------------------
 ! Name  Definition              Value          Derivative Info.                !
 --------------------------------------------------------------------------------
 ! R1    R(1,2)                  1.3552         estimate D2E/DX2                !
 ! R2    R(1,4)                  1.07           estimate D2E/DX2                !
 ! R3    R(1,6)                  1.07           estimate D2E/DX2                !
 ! R4    R(2,3)                  1.07           estimate D2E/DX2                !
 ! R5    R(2,5)                  1.07           estimate D2E/DX2                !
 ! A1    A(2,1,4)              120.0            estimate D2E/DX2                !
 ! A2    A(2,1,6)              120.0            estimate D2E/DX2                !
 ! A3    A(4,1,6)              120.0            estimate D2E/DX2                !
 ! A4    A(1,2,3)              120.0            estimate D2E/DX2                !
 ! A5    A(1,2,5)              120.0            estimate D2E/DX2                !
 ! A6    A(3,2,5)              120.0            estimate D2E/DX2                !
 ! D1    D(4,1,2,3)              0.0            estimate D2E/DX2                !
 ! D2    D(4,1,2,5)            180.0            estimate D2E/DX2                !
 ! D3    D(6,1,2,3)            180.0            estimate D2E/DX2                !
 ! D4    D(6,1,2,5)              0.0            estimate D2E/DX2                !
 --------------------------------------------------------------------------------
 Trust Radius=3.00D-01 FncErr=1.00D-07 GrdErr=1.00D-07
 Number of steps in this run=     25 maximum allowed number of steps=    100.
 GradGradGradGradGradGradGradGradGradGradGradGradGradGradGradGradGradGrad

                          Input orientation:                          
 ---------------------------------------------------------------------
 Center     Atomic      Atomic             Coordinates (Angstroms)
 Number     Number       Type             X           Y           Z
 ---------------------------------------------------------------------
      1          6           0       -1.333850    1.547988    0.000000
      2          6           0       -0.056211    1.096096    0.000000
      3          1           0        0.757160    1.791313    0.000000
      4          1           0       -1.529240    2.599997    0.000000
      5          1           0        0.139178    0.044087    0.000000
      6          1           0       -2.147222    0.852771    0.000000
 ---------------------------------------------------------------------
                    Distance matrix (angstroms):
                    1          2          3          4          5
     1  C    0.000000
     2  C    1.355200   0.000000
     3  H    2.105120   1.070000   0.000000
     4  H    1.070000   2.105120   2.425200   0.000000
     5  H    2.105120   1.070000   1.853294   3.052261   0.000000
     6  H    1.070000   2.105120   3.052261   1.853294   2.425200
                    6
     6  H    0.000000
 Stoichiometry    C2H4
 Framework group  D2H[C2"(C.C),SG(H4)]
 Deg. of freedom     3
 Full point group                 D2H     NOp   8
 Largest Abelian subgroup         D2H     NOp   8
 Largest concise Abelian subgroup D2      NOp   4
                         Standard orientation:                         
 ---------------------------------------------------------------------
 Center     Atomic      Atomic             Coordinates (Angstroms)
 Number     Number       Type             X           Y           Z
 ---------------------------------------------------------------------
      1          6           0        0.000000    0.000000    0.677600
      2          6           0        0.000000    0.000000   -0.677600
      3          1           0        0.000000    0.926647   -1.212600
      4          1           0        0.000000    0.926647    1.212600
      5          1           0        0.000000   -0.926647   -1.212600
      6          1           0        0.000000   -0.926647    1.212600
 ---------------------------------------------------------------------
 Rotational constants (GHZ):    145.9967683     29.8211114     24.7630440
 Standard basis: STO-3G (5D, 7F)
 There are     4 symmetry adapted cartesian basis functions of AG  symmetry.
 There are     0 symmetry adapted cartesian basis functions of B1G symmetry.
 There are     1 symmetry adapted cartesian basis functions of B2G symmetry.
 There are     2 symmetry adapted cartesian basis functions of B3G symmetry.
 There are     0 symmetry adapted cartesian basis functions of AU  symmetry.
 There are     4 symmetry adapted cartesian basis functions of B1U symmetry.
 There are     2 symmetry adapted cartesian basis functions of B2U symmetry.
 There are     1 symmetry adapted cartesian basis functions of B3U symmetry.
 There are     4 symmetry adapted basis functions of AG  symmetry.
 There are     0 symmetry adapted basis functions of B1G symmetry.
 There are     1 symmetry adapted basis functions of B2G symmetry.
 There are     2 symmetry adapted basis functions of B3G symmetry.
 There are     0 symmetry adapted basis functions of AU  symmetry.
 There are     4 symmetry adapted basis functions of B1U symmetry.
 There are     2 symmetry adapted basis functions of B2U symmetry.
 There are     1 symmetry adapted basis functions of B3U symmetry.
    14 basis functions,    42 primitive gaussians,    14 cartesian basis functions
     8 alpha electrons        8 beta electrons
       nuclear repulsion energy        33.3138807252 Hartrees.
 NAtoms=    6 NActive=    6 NUniq=    2 SFac= 4.00D+00 NAtFMM=   60 NAOKFM=F Big=F
 Integral buffers will be    131072 words long.
 Raffenetti 1 integral format.
 Two-electron integral symmetry is turned on.
 One-electron integrals computed using PRISM.
 NBasis=    14 RedAO= T EigKep=  2.34D-01  NBF=     4     0     1     2     0     4     2     1
 NBsUse=    14 1.00D-06 EigRej= -1.00D+00 NBFU=     4     0     1     2     0     4     2     1
 ExpMin= 1.69D-01 ExpMax= 7.16D+01 ExpMxC= 7.16D+01 IAcc=1 IRadAn=         1 AccDes= 0.00D+00
 Harris functional with IExCor=  205 and IRadAn=       1 diagonalized for initial guess.
 HarFok:  IExCor=  205 AccDes= 0.00D+00 IRadAn=         1 IDoV= 1 UseB2=F ITyADJ=14
 ICtDFT=  3500011 ScaDFX=  1.000000  1.000000  1.000000  1.000000
 FoFCou: FMM=F IPFlag=           0 FMFlag=      100000 FMFlg1=           0
         NFxFlg=           0 DoJE=T BraDBF=F KetDBF=T FulRan=T
         wScrn=  0.000000 ICntrl=     500 IOpCl=  0 I1Cent=   200000004 NGrid=           0
         NMat0=    1 NMatS0=      1 NMatT0=    0 NMatD0=    1 NMtDS0=    0 NMtDT0=    0
 Petite list used in FoFCou.
 Initial guess orbital symmetries:
       Occupied  (B1U) (AG) (AG) (B1U) (B2U) (AG) (B3G) (B3U)
       Virtual   (B2G) (B2U) (AG) (B1U) (B1U) (B3G)
 The electronic state of the initial guess is 1-AG.
 Keep R1 ints in memory in symmetry-blocked form, NReq=832595.
 Requested convergence on RMS density matrix=1.00D-08 within 128 cycles.
 Requested convergence on MAX density matrix=1.00D-06.
 Requested convergence on             energy=1.00D-06.
 No special actions if energy rises.
 SCF Done:  E(RHF) =  -77.0690470305     A.U. after    7 cycles
            NFock=  7  Conv=0.52D-08     -V/T= 2.0063

 **********************************************************************

            Population analysis using the SCF density.

 **********************************************************************

 Orbital symmetries:
       Occupied  (AG) (B1U) (AG) (B1U) (B2U) (AG) (B3G) (B3U)
       Virtual   (B2G) (B2U) (AG) (B1U) (B1U) (B3G)
 The electronic state is 1-AG.
 Alpha  occ. eigenvalues --  -11.01808 -11.01741  -0.97513  -0.74893  -0.60955
 Alpha  occ. eigenvalues --   -0.52252  -0.47336  -0.31820
 Alpha virt. eigenvalues --    0.31073   0.65989   0.69241   0.70584   0.95118
 Alpha virt. eigenvalues --    0.96081
          Condensed to atoms (all electrons):
               1          2          3          4          5          6
     1  C    4.798819   0.591727  -0.026162   0.395586  -0.026162   0.395586
     2  C    0.591727   4.798819   0.395586  -0.026162   0.395586  -0.026162
     3  H   -0.026162   0.395586   0.591399  -0.004687  -0.022822   0.001990
     4  H    0.395586  -0.026162  -0.004687   0.591399   0.001990  -0.022822
     5  H   -0.026162   0.395586  -0.022822   0.001990   0.591399  -0.004687
     6  H    0.395586  -0.026162   0.001990  -0.022822  -0.004687   0.591399
 Mulliken charges:
               1
     1  C   -0.129393
     2  C   -0.129393
     3  H    0.064696
     4  H    0.064696
     5  H    0.064696
     6  H    0.064696
 Sum of Mulliken charges =   0.00000
 Mulliken charges with hydrogens summed into heavy atoms:
               1
     1  C    0.000000
     2  C    0.000000
 Electronic spatial extent (au):  <R**2>=             80.6768
 Charge=              0.0000 electrons
 Dipole moment (field-independent basis, Debye):
    X=              0.0000    Y=              0.0000    Z=              0.0000  Tot=              0.0000
 Quadrupole moment (field-independent basis, Debye-Ang):
   XX=            -13.4719   YY=            -11.7582   ZZ=            -12.0707
   XY=              0.0000   XZ=              0.0000   YZ=              0.0000
 Traceless Quadrupole moment (field-independent basis, Debye-Ang):
   XX=             -1.0383   YY=              0.6753   ZZ=              0.3629
   XY=              0.0000   XZ=              0.0000   YZ=              0.0000
 Octapole moment (field-independent basis, Debye-Ang**2):
  XXX=              0.0000  YYY=              0.0000  ZZZ=              0.0000  XYY=              0.0000
  XXY=              0.0000  XXZ=              0.0000  XZZ=              0.0000  YZZ=              0.0000
  YYZ=              0.0000  XYZ=              0.0000
 Hexadecapole moment (field-independent basis, Debye-Ang**3):
 XXXX=            -10.8834 YYYY=            -23.9134 ZZZZ=            -64.1843 XXXY=              0.0000
 XXXZ=              0.0000 YYYX=              0.0000 YYYZ=              0.0000 ZZZX=              0.0000
 ZZZY=              0.0000 XXYY=             -6.3271 XXZZ=            -12.8940 YYZZ=            -12.5447
 XXYZ=              0.0000 YYXZ=              0.0000 ZZXY=              0.0000
 N-N= 3.331388072518D+01 E-N=-2.459832628527D+02  KE= 7.658377879670D+01
 Symmetry AG   KE= 3.650139741349D+01
 Symmetry B1G  KE= 0.000000000000D+00
 Symmetry B2G  KE= 1.060811097304D-33
 Symmetry B3G  KE= 2.102808842025D+00
 Symmetry AU   KE= 0.000000000000D+00
 Symmetry B1U  KE= 3.367975780523D+01
 Symmetry B2U  KE= 1.758043130120D+00
 Symmetry B3U  KE= 2.541771605836D+00
 Calling FoFJK, ICntrl=      2127 FMM=F ISym2X=1 I1Cent= 0 IOpClX= 0 NMat=1 NMatS=1 NMatT=0.
 ***** Axes restored to original set *****
 -------------------------------------------------------------------
 Center     Atomic                   Forces (Hartrees/Bohr)
 Number     Number              X              Y              Z
 -------------------------------------------------------------------
      1        6           0.087190536   -0.030838698    0.000000000
      2        6          -0.087190536    0.030838698    0.000000000
      3        1           0.012338570    0.001944245    0.000000000
      4        1          -0.008372328    0.009269548    0.000000000
      5        1           0.008372328   -0.009269548    0.000000000
      6        1          -0.012338570   -0.001944245    0.000000000
 -------------------------------------------------------------------
 Cartesian Forces:  Max     0.087190536 RMS     0.031385162

 GradGradGradGradGradGradGradGradGradGradGradGradGradGradGradGradGradGrad
 Berny optimization.
 FormGI is forming the generalized inverse of G from B-inverse, IUseBI=4.
 Internal  Forces:  Max     0.070515403 RMS     0.019422596
 Search for a local minimum.
 Step number   1 out of a maximum of   25
 All quantities printed in internal units (Hartrees-Bohrs-Radians)
 Mixed Optimization -- RFO/linear search
 Second derivative matrix not updated -- first step.
 The second derivative matrix:
                          R1        R2        R3        R4        R5
           R1           0.53930
           R2           0.00000   0.37230
           R3           0.00000   0.00000   0.37230
           R4           0.00000   0.00000   0.00000   0.37230
           R5           0.00000   0.00000   0.00000   0.00000   0.37230
           A1           0.00000   0.00000   0.00000   0.00000   0.00000
           A2           0.00000   0.00000   0.00000   0.00000   0.00000
           A3           0.00000   0.00000   0.00000   0.00000   0.00000
           A4           0.00000   0.00000   0.00000   0.00000   0.00000
           A5           0.00000   0.00000   0.00000   0.00000   0.00000
           A6           0.00000   0.00000   0.00000   0.00000   0.00000
           D1           0.00000   0.00000   0.00000   0.00000   0.00000
           D2           0.00000   0.00000   0.00000   0.00000   0.00000
           D3           0.00000   0.00000   0.00000   0.00000   0.00000
           D4           0.00000   0.00000   0.00000   0.00000   0.00000
                          A1        A2        A3        A4        A5
           A1           0.16000
           A2           0.00000   0.16000
           A3           0.00000   0.00000   0.16000
           A4           0.00000   0.00000   0.00000   0.16000
           A5           0.00000   0.00000   0.00000   0.00000   0.16000
           A6           0.00000   0.00000   0.00000   0.00000   0.00000
           D1           0.00000   0.00000   0.00000   0.00000   0.00000
           D2           0.00000   0.00000   0.00000   0.00000   0.00000
           D3           0.00000   0.00000   0.00000   0.00000   0.00000
           D4           0.00000   0.00000   0.00000   0.00000   0.00000
                          A6        D1        D2        D3        D4
           A6           0.16000
           D1           0.00000   0.02681
           D2           0.00000   0.00000   0.02681
           D3           0.00000   0.00000   0.00000   0.02681
           D4           0.00000   0.00000   0.00000   0.00000   0.02681
 ITU=  0
     Eigenvalues ---    0.02681   0.02681   0.02681   0.16000   0.16000
     Eigenvalues ---    0.16000   0.16000   0.37230   0.37230   0.37230
     Eigenvalues ---    0.37230   0.53930
 RFO step:  Lambda=-1.15654066D-02 EMin= 2.68137376D-02
 Linear search not attempted -- first point.
 Iteration  1 RMS(Cart)=  0.02354431 RMS(Int)=  0.00046377
 Iteration  2 RMS(Cart)=  0.00050502 RMS(Int)=  0.00000012
 Iteration  3 RMS(Cart)=  0.00000013 RMS(Int)=  0.00000000
 ClnCor:  largest displacement from symmetrization is 2.94D-13 for atom     2.
 Variable       Old X    -DE/DX   Delta X   Delta X   Delta X     New X
                                 (Linear)    (Quad)   (Total)
    R1        2.56096  -0.07052   0.00000  -0.12801  -0.12801   2.43295
    R2        2.02201   0.01064   0.00000   0.02772   0.02772   2.04973
    R3        2.02201   0.01064   0.00000   0.02772   0.02772   2.04973
    R4        2.02201   0.01064   0.00000   0.02772   0.02772   2.04973
    R5        2.02201   0.01064   0.00000   0.02772   0.02772   2.04973
    A1        2.09440   0.00441   0.00000   0.02569   0.02569   2.12008
    A2        2.09440   0.00441   0.00000   0.02569   0.02569   2.12008
    A3        2.09440  -0.00881   0.00000  -0.05138  -0.05138   2.04302
    A4        2.09440   0.00441   0.00000   0.02569   0.02569   2.12008
    A5        2.09440   0.00441   0.00000   0.02569   0.02569   2.12008
    A6        2.09440  -0.00881   0.00000  -0.05138  -0.05138   2.04302
    D1        0.00000   0.00000   0.00000   0.00000   0.00000   0.00000
    D2        3.14159   0.00000   0.00000   0.00000   0.00000   3.14159
    D3        3.14159   0.00000   0.00000   0.00000   0.00000   3.14159
    D4        0.00000   0.00000   0.00000   0.00000   0.00000   0.00000
         Item               Value     Threshold  Converged?
 Maximum Force            0.070515     0.000450     NO 
 RMS     Force            0.019423     0.000300     NO 
 Maximum Displacement     0.060341     0.001800     NO 
 RMS     Displacement     0.023555     0.001200     NO 
 Predicted change in Energy=-5.941035D-03
 GradGradGradGradGradGradGradGradGradGradGradGradGradGradGradGradGradGrad

                          Input orientation:                          
 ---------------------------------------------------------------------
 Center     Atomic      Atomic             Coordinates (Angstroms)
 Number     Number       Type             X           Y           Z
 ---------------------------------------------------------------------
      1          6           0       -1.301919    1.536694    0.000000
      2          6           0       -0.088143    1.107390    0.000000
      3          1           0        0.754211    1.790729    0.000000
      4          1           0       -1.527314    2.597688    0.000000
      5          1           0        0.137253    0.046396    0.000000
      6          1           0       -2.144273    0.853356    0.000000
 ---------------------------------------------------------------------
                    Distance matrix (angstroms):
                    1          2          3          4          5
     1  C    0.000000
     2  C    1.287461   0.000000
     3  H    2.071763   1.084671   0.000000
     4  H    1.084671   2.071763   2.420029   0.000000
     5  H    2.071763   1.084671   1.850226   3.046289   0.000000
     6  H    1.084671   2.071763   3.046289   1.850226   2.420029
                    6
     6  H    0.000000
 Stoichiometry    C2H4
 Framework group  D2H[C2"(C.C),SG(H4)]
 Deg. of freedom     3
 Full point group                 D2H     NOp   8
 Largest Abelian subgroup         D2H     NOp   8
 Largest concise Abelian subgroup D2      NOp   4
                         Standard orientation:                         
 ---------------------------------------------------------------------
 Center     Atomic      Atomic             Coordinates (Angstroms)
 Number     Number       Type             X           Y           Z
 ---------------------------------------------------------------------
      1          6           0        0.000000    0.000000    0.643730
      2          6           0        0.000000    0.000000   -0.643730
      3          1           0        0.000000    0.925113   -1.210015
      4          1           0        0.000000    0.925113    1.210015
      5          1           0        0.000000   -0.925113   -1.210015
      6          1           0        0.000000   -0.925113    1.210015
 ---------------------------------------------------------------------
 Rotational constants (GHZ):    146.4814669     31.8897452     26.1884001
 Standard basis: STO-3G (5D, 7F)
 There are     4 symmetry adapted cartesian basis functions of AG  symmetry.
 There are     0 symmetry adapted cartesian basis functions of B1G symmetry.
 There are     1 symmetry adapted cartesian basis functions of B2G symmetry.
 There are     2 symmetry adapted cartesian basis functions of B3G symmetry.
 There are     0 symmetry adapted cartesian basis functions of AU  symmetry.
 There are     4 symmetry adapted cartesian basis functions of B1U symmetry.
 There are     2 symmetry adapted cartesian basis functions of B2U symmetry.
 There are     1 symmetry adapted cartesian basis functions of B3U symmetry.
 There are     4 symmetry adapted basis functions of AG  symmetry.
 There are     0 symmetry adapted basis functions of B1G symmetry.
 There are     1 symmetry adapted basis functions of B2G symmetry.
 There are     2 symmetry adapted basis functions of B3G symmetry.
 There are     0 symmetry adapted basis functions of AU  symmetry.
 There are     4 symmetry adapted basis functions of B1U symmetry.
 There are     2 symmetry adapted basis functions of B2U symmetry.
 There are     1 symmetry adapted basis functions of B3U symmetry.
    14 basis functions,    42 primitive gaussians,    14 cartesian basis functions
     8 alpha electrons        8 beta electrons
       nuclear repulsion energy        33.9926501920 Hartrees.
 NAtoms=    6 NActive=    6 NUniq=    2 SFac= 4.00D+00 NAtFMM=   60 NAOKFM=F Big=F
 Integral buffers will be    131072 words long.
 Raffenetti 1 integral format.
 Two-electron integral symmetry is turned on.
 One-electron integrals computed using PRISM.
 NBasis=    14 RedAO= T EigKep=  2.21D-01  NBF=     4     0     1     2     0     4     2     1
 NBsUse=    14 1.00D-06 EigRej= -1.00D+00 NBFU=     4     0     1     2     0     4     2     1
 Initial guess from the checkpoint file:  "ethene1.chk"
 B after Tr=     0.000000    0.000000    0.000000
         Rot=    1.000000    0.000000    0.000000    0.000000 Ang=   0.00 deg.
 Initial guess orbital symmetries:
       Occupied  (AG) (B1U) (AG) (B1U) (B2U) (AG) (B3G) (B3U)
       Virtual   (AG) (B2G) (B3G) (B1U) (B1U) (B2U)
 ExpMin= 1.69D-01 ExpMax= 7.16D+01 ExpMxC= 7.16D+01 IAcc=1 IRadAn=         1 AccDes= 0.00D+00
 Harris functional with IExCor=  205 and IRadAn=       1 diagonalized for initial guess.
 HarFok:  IExCor=  205 AccDes= 0.00D+00 IRadAn=         1 IDoV= 1 UseB2=F ITyADJ=14
 ICtDFT=  3500011 ScaDFX=  1.000000  1.000000  1.000000  1.000000
 FoFCou: FMM=F IPFlag=           0 FMFlag=      100000 FMFlg1=           0
         NFxFlg=           0 DoJE=T BraDBF=F KetDBF=T FulRan=T
         wScrn=  0.000000 ICntrl=     500 IOpCl=  0 I1Cent=   200000004 NGrid=           0
         NMat0=    1 NMatS0=      1 NMatT0=    0 NMatD0=    1 NMtDS0=    0 NMtDT0=    0
 Petite list used in FoFCou.
 Keep R1 ints in memory in symmetry-blocked form, NReq=832595.
 Requested convergence on RMS density matrix=1.00D-08 within 128 cycles.
 Requested convergence on MAX density matrix=1.00D-06.
 Requested convergence on             energy=1.00D-06.
 No special actions if energy rises.
 SCF Done:  E(RHF) =  -77.0731283699     A.U. after    7 cycles
            NFock=  7  Conv=0.10D-08     -V/T= 2.0053
 Calling FoFJK, ICntrl=      2127 FMM=F ISym2X=1 I1Cent= 0 IOpClX= 0 NMat=1 NMatS=1 NMatT=0.
 ***** Axes restored to original set *****
 -------------------------------------------------------------------
 Center     Atomic                   Forces (Hartrees/Bohr)
 Number     Number              X              Y              Z
 -------------------------------------------------------------------
      1        6          -0.031041807    0.010979275    0.000000000
      2        6           0.031041807   -0.010979275    0.000000000
      3        1           0.000097106   -0.004421552    0.000000000
      4        1          -0.002855485   -0.003377241    0.000000000
      5        1           0.002855485    0.003377241    0.000000000
      6        1          -0.000097106    0.004421552    0.000000000
 -------------------------------------------------------------------
 Cartesian Forces:  Max     0.031041807 RMS     0.011171677

 GradGradGradGradGradGradGradGradGradGradGradGradGradGradGradGradGradGrad
 Berny optimization.
 Using GEDIIS/GDIIS optimizer.
 FormGI is forming the generalized inverse of G from B-inverse, IUseBI=4.
 Internal  Forces:  Max     0.036058088 RMS     0.009653981
 Search for a local minimum.
 Step number   2 out of a maximum of   25
 All quantities printed in internal units (Hartrees-Bohrs-Radians)
 Mixed Optimization -- RFO/linear search
 Update second derivatives using D2CorX and points    1    2
 DE= -4.08D-03 DEPred=-5.94D-03 R= 6.87D-01
 TightC=F SS=  1.41D+00  RLast= 1.65D-01 DXNew= 5.0454D-01 4.9640D-01
 Trust test= 6.87D-01 RLast= 1.65D-01 DXMaxT set to 4.96D-01
 The second derivative matrix:
                          R1        R2        R3        R4        R5
           R1           0.83696
           R2          -0.02703   0.37415
           R3          -0.02703   0.00185   0.37415
           R4          -0.02703   0.00185   0.00185   0.37415
           R5          -0.02703   0.00185   0.00185   0.00185   0.37415
           A1           0.01156  -0.00206  -0.00206  -0.00206  -0.00206
           A2           0.01156  -0.00206  -0.00206  -0.00206  -0.00206
           A3          -0.02311   0.00412   0.00412   0.00412   0.00412
           A4           0.01156  -0.00206  -0.00206  -0.00206  -0.00206
           A5           0.01156  -0.00206  -0.00206  -0.00206  -0.00206
           A6          -0.02311   0.00412   0.00412   0.00412   0.00412
           D1           0.00000   0.00000   0.00000   0.00000   0.00000
           D2           0.00000   0.00000   0.00000   0.00000   0.00000
           D3           0.00000   0.00000   0.00000   0.00000   0.00000
           D4           0.00000   0.00000   0.00000   0.00000   0.00000
                          A1        A2        A3        A4        A5
           A1           0.15876
           A2          -0.00124   0.15876
           A3           0.00249   0.00249   0.15503
           A4          -0.00124  -0.00124   0.00249   0.15876
           A5          -0.00124  -0.00124   0.00249  -0.00124   0.15876
           A6           0.00249   0.00249  -0.00497   0.00249   0.00249
           D1           0.00000   0.00000   0.00000   0.00000   0.00000
           D2           0.00000   0.00000   0.00000   0.00000   0.00000
           D3           0.00000   0.00000   0.00000   0.00000   0.00000
           D4           0.00000   0.00000   0.00000   0.00000   0.00000
                          A6        D1        D2        D3        D4
           A6           0.15503
           D1           0.00000   0.02681
           D2           0.00000   0.00000   0.02681
           D3           0.00000   0.00000   0.00000   0.02681
           D4           0.00000   0.00000   0.00000   0.00000   0.02681
 ITU=  1  0
 Use linear search instead of GDIIS.
     Eigenvalues ---    0.02681   0.02681   0.02681   0.14225   0.16000
     Eigenvalues ---    0.16000   0.16000   0.37230   0.37230   0.37230
     Eigenvalues ---    0.37380   0.84571
 RFO step:  Lambda=-9.44862525D-04 EMin= 2.68137376D-02
 Quartic linear search produced a step of -0.23825.
 Iteration  1 RMS(Cart)=  0.02640619 RMS(Int)=  0.00013552
 Iteration  2 RMS(Cart)=  0.00013433 RMS(Int)=  0.00000000
 Iteration  3 RMS(Cart)=  0.00000000 RMS(Int)=  0.00000000
 ClnCor:  largest displacement from symmetrization is 3.65D-13 for atom     2.
 Variable       Old X    -DE/DX   Delta X   Delta X   Delta X     New X
                                 (Linear)    (Quad)   (Total)
    R1        2.43295   0.03606   0.03050   0.00724   0.03774   2.47069
    R2        2.04973  -0.00271  -0.00661   0.00433  -0.00228   2.04745
    R3        2.04973  -0.00271  -0.00661   0.00433  -0.00228   2.04745
    R4        2.04973  -0.00271  -0.00661   0.00433  -0.00228   2.04745
    R5        2.04973  -0.00271  -0.00661   0.00433  -0.00228   2.04745
    A1        2.12008   0.00239  -0.00612   0.02207   0.01595   2.13604
    A2        2.12008   0.00239  -0.00612   0.02207   0.01595   2.13604
    A3        2.04302  -0.00478   0.01224  -0.04414  -0.03190   2.01111
    A4        2.12008   0.00239  -0.00612   0.02207   0.01595   2.13604
    A5        2.12008   0.00239  -0.00612   0.02207   0.01595   2.13604
    A6        2.04302  -0.00478   0.01224  -0.04414  -0.03190   2.01111
    D1        0.00000   0.00000   0.00000   0.00000   0.00000   0.00000
    D2        3.14159   0.00000   0.00000   0.00000   0.00000   3.14159
    D3        3.14159   0.00000   0.00000   0.00000   0.00000   3.14159
    D4        0.00000   0.00000   0.00000   0.00000   0.00000   0.00000
         Item               Value     Threshold  Converged?
 Maximum Force            0.036058     0.000450     NO 
 RMS     Force            0.009654     0.000300     NO 
 Maximum Displacement     0.049209     0.001800     NO 
 RMS     Displacement     0.026374     0.001200     NO 
 Predicted change in Energy=-9.247565D-04
 GradGradGradGradGradGradGradGradGradGradGradGradGradGradGradGradGradGrad

                          Input orientation:                          
 ---------------------------------------------------------------------
 Center     Atomic      Atomic             Coordinates (Angstroms)
 Number     Number       Type             X           Y           Z
 ---------------------------------------------------------------------
      1          6           0       -1.311333    1.540024    0.000000
      2          6           0       -0.078728    1.104060    0.000000
      3          1           0        0.773469    1.773130    0.000000
      4          1           0       -1.553354    2.596112    0.000000
      5          1           0        0.163293    0.047972    0.000000
      6          1           0       -2.163531    0.870954    0.000000
 ---------------------------------------------------------------------
                    Distance matrix (angstroms):
                    1          2          3          4          5
     1  C    0.000000
     2  C    1.307432   0.000000
     3  H    2.097794   1.083465   0.000000
     4  H    1.083465   2.097794   2.468078   0.000000
     5  H    2.097794   1.083465   1.829887   3.072441   0.000000
     6  H    1.083465   2.097794   3.072441   1.829887   2.468078
                    6
     6  H    0.000000
 Stoichiometry    C2H4
 Framework group  D2H[C2"(C.C),SG(H4)]
 Deg. of freedom     3
 Full point group                 D2H     NOp   8
 Largest Abelian subgroup         D2H     NOp   8
 Largest concise Abelian subgroup D2      NOp   4
                         Standard orientation:                         
 ---------------------------------------------------------------------
 Center     Atomic      Atomic             Coordinates (Angstroms)
 Number     Number       Type             X           Y           Z
 ---------------------------------------------------------------------
      1          6           0        0.000000    0.000000    0.653716
      2          6           0        0.000000    0.000000   -0.653716
      3          1           0        0.000000    0.914943   -1.234039
      4          1           0        0.000000    0.914943    1.234039
      5          1           0        0.000000   -0.914943   -1.234039
      6          1           0        0.000000   -0.914943    1.234039
 ---------------------------------------------------------------------
 Rotational constants (GHZ):    149.7558255     30.8245361     25.5628786
 Standard basis: STO-3G (5D, 7F)
 There are     4 symmetry adapted cartesian basis functions of AG  symmetry.
 There are     0 symmetry adapted cartesian basis functions of B1G symmetry.
 There are     1 symmetry adapted cartesian basis functions of B2G symmetry.
 There are     2 symmetry adapted cartesian basis functions of B3G symmetry.
 There are     0 symmetry adapted cartesian basis functions of AU  symmetry.
 There are     4 symmetry adapted cartesian basis functions of B1U symmetry.
 There are     2 symmetry adapted cartesian basis functions of B2U symmetry.
 There are     1 symmetry adapted cartesian basis functions of B3U symmetry.
 There are     4 symmetry adapted basis functions of AG  symmetry.
 There are     0 symmetry adapted basis functions of B1G symmetry.
 There are     1 symmetry adapted basis functions of B2G symmetry.
 There are     2 symmetry adapted basis functions of B3G symmetry.
 There are     0 symmetry adapted basis functions of AU  symmetry.
 There are     4 symmetry adapted basis functions of B1U symmetry.
 There are     2 symmetry adapted basis functions of B2U symmetry.
 There are     1 symmetry adapted basis functions of B3U symmetry.
    14 basis functions,    42 primitive gaussians,    14 cartesian basis functions
     8 alpha electrons        8 beta electrons
       nuclear repulsion energy        33.6984786990 Hartrees.
 NAtoms=    6 NActive=    6 NUniq=    2 SFac= 4.00D+00 NAtFMM=   60 NAOKFM=F Big=F
 Integral buffers will be    131072 words long.
 Raffenetti 1 integral format.
 Two-electron integral symmetry is turned on.
 One-electron integrals computed using PRISM.
 NBasis=    14 RedAO= T EigKep=  2.29D-01  NBF=     4     0     1     2     0     4     2     1
 NBsUse=    14 1.00D-06 EigRej= -1.00D+00 NBFU=     4     0     1     2     0     4     2     1
 Initial guess from the checkpoint file:  "ethene1.chk"
 B after Tr=     0.000000    0.000000    0.000000
         Rot=    1.000000    0.000000    0.000000    0.000000 Ang=   0.00 deg.
 Initial guess orbital symmetries:
       Occupied  (AG) (B1U) (AG) (B1U) (B2U) (AG) (B3G) (B3U)
       Virtual   (AG) (B2G) (B3G) (B1U) (B1U) (B2U)
 ExpMin= 1.69D-01 ExpMax= 7.16D+01 ExpMxC= 7.16D+01 IAcc=1 IRadAn=         1 AccDes= 0.00D+00
 Harris functional with IExCor=  205 and IRadAn=       1 diagonalized for initial guess.
 HarFok:  IExCor=  205 AccDes= 0.00D+00 IRadAn=         1 IDoV= 1 UseB2=F ITyADJ=14
 ICtDFT=  3500011 ScaDFX=  1.000000  1.000000  1.000000  1.000000
 FoFCou: FMM=F IPFlag=           0 FMFlag=      100000 FMFlg1=           0
         NFxFlg=           0 DoJE=T BraDBF=F KetDBF=T FulRan=T
         wScrn=  0.000000 ICntrl=     500 IOpCl=  0 I1Cent=   200000004 NGrid=           0
         NMat0=    1 NMatS0=      1 NMatT0=    0 NMatD0=    1 NMtDS0=    0 NMtDT0=    0
 Petite list used in FoFCou.
 Keep R1 ints in memory in symmetry-blocked form, NReq=832595.
 Requested convergence on RMS density matrix=1.00D-08 within 128 cycles.
 Requested convergence on MAX density matrix=1.00D-06.
 Requested convergence on             energy=1.00D-06.
 No special actions if energy rises.
 SCF Done:  E(RHF) =  -77.0739310291     A.U. after    6 cycles
            NFock=  6  Conv=0.60D-08     -V/T= 2.0059
 Calling FoFJK, ICntrl=      2127 FMM=F ISym2X=1 I1Cent= 0 IOpClX= 0 NMat=1 NMatS=1 NMatT=0.
 ***** Axes restored to original set *****
 -------------------------------------------------------------------
 Center     Atomic                   Forces (Hartrees/Bohr)
 Number     Number              X              Y              Z
 -------------------------------------------------------------------
      1        6           0.000186283   -0.000065887    0.000000000
      2        6          -0.000186283    0.000065887    0.000000000
      3        1          -0.001525120   -0.000121578    0.000000000
      4        1           0.001109526   -0.001053434    0.000000000
      5        1          -0.001109526    0.001053434    0.000000000
      6        1           0.001525120    0.000121578    0.000000000
 -------------------------------------------------------------------
 Cartesian Forces:  Max     0.001525120 RMS     0.000724230

 GradGradGradGradGradGradGradGradGradGradGradGradGradGradGradGradGradGrad
 Berny optimization.
 Using GEDIIS/GDIIS optimizer.
 FormGI is forming the generalized inverse of G from B-inverse, IUseBI=4.
 Internal  Forces:  Max     0.002992179 RMS     0.001138838
 Search for a local minimum.
 Step number   3 out of a maximum of   25
 All quantities printed in internal units (Hartrees-Bohrs-Radians)
 Mixed Optimization -- RFO/linear search
 Update second derivatives using D2CorX and points    1    2    3
 DE= -8.03D-04 DEPred=-9.25D-04 R= 8.68D-01
 TightC=F SS=  1.41D+00  RLast= 6.71D-02 DXNew= 8.3485D-01 2.0122D-01
 Trust test= 8.68D-01 RLast= 6.71D-02 DXMaxT set to 4.96D-01
 The second derivative matrix:
                          R1        R2        R3        R4        R5
           R1           0.94407
           R2          -0.01617   0.37463
           R3          -0.01617   0.00233   0.37463
           R4          -0.01617   0.00233   0.00233   0.37463
           R5          -0.01617   0.00233   0.00233   0.00233   0.37463
           A1           0.01710   0.00024   0.00024   0.00024   0.00024
           A2           0.01710   0.00024   0.00024   0.00024   0.00024
           A3          -0.03419  -0.00047  -0.00047  -0.00047  -0.00047
           A4           0.01710   0.00024   0.00024   0.00024   0.00024
           A5           0.01710   0.00024   0.00024   0.00024   0.00024
           A6          -0.03419  -0.00047  -0.00047  -0.00047  -0.00047
           D1           0.00000   0.00000   0.00000   0.00000   0.00000
           D2           0.00000   0.00000   0.00000   0.00000   0.00000
           D3           0.00000   0.00000   0.00000   0.00000   0.00000
           D4           0.00000   0.00000   0.00000   0.00000   0.00000
                          A1        A2        A3        A4        A5
           A1           0.15880
           A2          -0.00120   0.15880
           A3           0.00240   0.00240   0.15519
           A4          -0.00120  -0.00120   0.00240   0.15880
           A5          -0.00120  -0.00120   0.00240  -0.00120   0.15880
           A6           0.00240   0.00240  -0.00481   0.00240   0.00240
           D1           0.00000   0.00000   0.00000   0.00000   0.00000
           D2           0.00000   0.00000   0.00000   0.00000   0.00000
           D3           0.00000   0.00000   0.00000   0.00000   0.00000
           D4           0.00000   0.00000   0.00000   0.00000   0.00000
                          A6        D1        D2        D3        D4
           A6           0.15519
           D1           0.00000   0.02681
           D2           0.00000   0.00000   0.02681
           D3           0.00000   0.00000   0.00000   0.02681
           D4           0.00000   0.00000   0.00000   0.00000   0.02681
 ITU=  1  1  0
 Use linear search instead of GDIIS.
     Eigenvalues ---    0.02681   0.02681   0.02681   0.14115   0.16000
     Eigenvalues ---    0.16000   0.16000   0.37230   0.37230   0.37230
     Eigenvalues ---    0.37988   0.95025
 RFO step:  Lambda=-2.96399556D-05 EMin= 2.68137376D-02
 Quartic linear search produced a step of -0.10665.
 Iteration  1 RMS(Cart)=  0.00509381 RMS(Int)=  0.00000944
 Iteration  2 RMS(Cart)=  0.00000983 RMS(Int)=  0.00000000
 Iteration  3 RMS(Cart)=  0.00000000 RMS(Int)=  0.00000000
 ClnCor:  largest displacement from symmetrization is 3.49D-13 for atom     2.
 Variable       Old X    -DE/DX   Delta X   Delta X   Delta X     New X
                                 (Linear)    (Quad)   (Total)
    R1        2.47069  -0.00299  -0.00402   0.00139  -0.00264   2.46805
    R2        2.04745  -0.00127   0.00024  -0.00366  -0.00341   2.04404
    R3        2.04745  -0.00127   0.00024  -0.00366  -0.00341   2.04404
    R4        2.04745  -0.00127   0.00024  -0.00366  -0.00341   2.04404
    R5        2.04745  -0.00127   0.00024  -0.00366  -0.00341   2.04404
    A1        2.13604  -0.00058  -0.00170  -0.00211  -0.00381   2.13222
    A2        2.13604  -0.00058  -0.00170  -0.00211  -0.00381   2.13222
    A3        2.01111   0.00116   0.00340   0.00422   0.00762   2.01874
    A4        2.13604  -0.00058  -0.00170  -0.00211  -0.00381   2.13222
    A5        2.13604  -0.00058  -0.00170  -0.00211  -0.00381   2.13222
    A6        2.01111   0.00116   0.00340   0.00422   0.00762   2.01874
    D1        0.00000   0.00000   0.00000   0.00000   0.00000   0.00000
    D2        3.14159   0.00000   0.00000   0.00000   0.00000   3.14159
    D3        3.14159   0.00000   0.00000   0.00000   0.00000   3.14159
    D4        0.00000   0.00000   0.00000   0.00000   0.00000   0.00000
         Item               Value     Threshold  Converged?
 Maximum Force            0.002992     0.000450     NO 
 RMS     Force            0.001139     0.000300     NO 
 Maximum Displacement     0.009603     0.001800     NO 
 RMS     Displacement     0.005093     0.001200     NO 
 Predicted change in Energy=-2.521602D-05
 GradGradGradGradGradGradGradGradGradGradGradGradGradGradGradGradGradGrad

                          Input orientation:                          
 ---------------------------------------------------------------------
 Center     Atomic      Atomic             Coordinates (Angstroms)
 Number     Number       Type             X           Y           Z
 ---------------------------------------------------------------------
      1          6           0       -1.310675    1.539791    0.000000
      2          6           0       -0.079387    1.104293    0.000000
      3          1           0        0.768838    1.775485    0.000000
      4          1           0       -1.548272    2.595031    0.000000
      5          1           0        0.158211    0.049053    0.000000
      6          1           0       -2.158900    0.868599    0.000000
 ---------------------------------------------------------------------
                    Distance matrix (angstroms):
                    1          2          3          4          5
     1  C    0.000000
     2  C    1.306035   0.000000
     3  H    2.092827   1.081658   0.000000
     4  H    1.081658   2.092827   2.457775   0.000000
     5  H    2.092827   1.081658   1.831238   3.064978   0.000000
     6  H    1.081658   2.092827   3.064978   1.831238   2.457775
                    6
     6  H    0.000000
 Stoichiometry    C2H4
 Framework group  D2H[C2"(C.C),SG(H4)]
 Deg. of freedom     3
 Full point group                 D2H     NOp   8
 Largest Abelian subgroup         D2H     NOp   8
 Largest concise Abelian subgroup D2      NOp   4
                         Standard orientation:                         
 ---------------------------------------------------------------------
 Center     Atomic      Atomic             Coordinates (Angstroms)
 Number     Number       Type             X           Y           Z
 ---------------------------------------------------------------------
      1          6           0        0.000000    0.000000    0.653018
      2          6           0        0.000000    0.000000   -0.653018
      3          1           0        0.000000    0.915619   -1.228888
      4          1           0        0.000000    0.915619    1.228888
      5          1           0        0.000000   -0.915619   -1.228888
      6          1           0        0.000000   -0.915619    1.228888
 ---------------------------------------------------------------------
 Rotational constants (GHZ):    149.5348257     30.9624934     25.6511901
 Standard basis: STO-3G (5D, 7F)
 There are     4 symmetry adapted cartesian basis functions of AG  symmetry.
 There are     0 symmetry adapted cartesian basis functions of B1G symmetry.
 There are     1 symmetry adapted cartesian basis functions of B2G symmetry.
 There are     2 symmetry adapted cartesian basis functions of B3G symmetry.
 There are     0 symmetry adapted cartesian basis functions of AU  symmetry.
 There are     4 symmetry adapted cartesian basis functions of B1U symmetry.
 There are     2 symmetry adapted cartesian basis functions of B2U symmetry.
 There are     1 symmetry adapted cartesian basis functions of B3U symmetry.
 There are     4 symmetry adapted basis functions of AG  symmetry.
 There are     0 symmetry adapted basis functions of B1G symmetry.
 There are     1 symmetry adapted basis functions of B2G symmetry.
 There are     2 symmetry adapted basis functions of B3G symmetry.
 There are     0 symmetry adapted basis functions of AU  symmetry.
 There are     4 symmetry adapted basis functions of B1U symmetry.
 There are     2 symmetry adapted basis functions of B2U symmetry.
 There are     1 symmetry adapted basis functions of B3U symmetry.
    14 basis functions,    42 primitive gaussians,    14 cartesian basis functions
     8 alpha electrons        8 beta electrons
       nuclear repulsion energy        33.7502177462 Hartrees.
 NAtoms=    6 NActive=    6 NUniq=    2 SFac= 4.00D+00 NAtFMM=   60 NAOKFM=F Big=F
 Integral buffers will be    131072 words long.
 Raffenetti 1 integral format.
 Two-electron integral symmetry is turned on.
 One-electron integrals computed using PRISM.
 NBasis=    14 RedAO= T EigKep=  2.28D-01  NBF=     4     0     1     2     0     4     2     1
 NBsUse=    14 1.00D-06 EigRej= -1.00D+00 NBFU=     4     0     1     2     0     4     2     1
 Initial guess from the checkpoint file:  "ethene1.chk"
 B after Tr=     0.000000    0.000000    0.000000
         Rot=    1.000000    0.000000    0.000000    0.000000 Ang=   0.00 deg.
 Initial guess orbital symmetries:
       Occupied  (AG) (B1U) (AG) (B1U) (B2U) (AG) (B3G) (B3U)
       Virtual   (AG) (B2G) (B3G) (B1U) (B1U) (B2U)
 Keep R1 ints in memory in symmetry-blocked form, NReq=832595.
 Requested convergence on RMS density matrix=1.00D-08 within 128 cycles.
 Requested convergence on MAX density matrix=1.00D-06.
 Requested convergence on             energy=1.00D-06.
 No special actions if energy rises.
 SCF Done:  E(RHF) =  -77.0739543896     A.U. after    6 cycles
            NFock=  6  Conv=0.15D-08     -V/T= 2.0058
 Calling FoFJK, ICntrl=      2127 FMM=F ISym2X=1 I1Cent= 0 IOpClX= 0 NMat=1 NMatS=1 NMatT=0.
 ***** Axes restored to original set *****
 -------------------------------------------------------------------
 Center     Atomic                   Forces (Hartrees/Bohr)
 Number     Number              X              Y              Z
 -------------------------------------------------------------------
      1        6           0.000332117   -0.000117467    0.000000000
      2        6          -0.000332117    0.000117467    0.000000000
      3        1           0.000251144    0.000159919    0.000000000
      4        1          -0.000094748    0.000282259    0.000000000
      5        1           0.000094748   -0.000282259    0.000000000
      6        1          -0.000251144   -0.000159919    0.000000000
 -------------------------------------------------------------------
 Cartesian Forces:  Max     0.000332117 RMS     0.000182998

 GradGradGradGradGradGradGradGradGradGradGradGradGradGradGradGradGradGrad
 Berny optimization.
 Using GEDIIS/GDIIS optimizer.
 FormGI is forming the generalized inverse of G from B-inverse, IUseBI=4.
 Internal  Forces:  Max     0.000296177 RMS     0.000154112
 Search for a local minimum.
 Step number   4 out of a maximum of   25
 All quantities printed in internal units (Hartrees-Bohrs-Radians)
 Mixed Optimization -- En-DIIS/RFO-DIIS
 Update second derivatives using D2CorX and points    1    2    3    4
 DE= -2.34D-05 DEPred=-2.52D-05 R= 9.26D-01
 TightC=F SS=  1.41D+00  RLast= 1.51D-02 DXNew= 8.3485D-01 4.5287D-02
 Trust test= 9.26D-01 RLast= 1.51D-02 DXMaxT set to 4.96D-01
 The second derivative matrix:
                          R1        R2        R3        R4        R5
           R1           0.94139
           R2          -0.01334   0.38885
           R3          -0.01334   0.01654   0.38885
           R4          -0.01334   0.01654   0.01654   0.38885
           R5          -0.01334   0.01654   0.01654   0.01654   0.38885
           A1           0.01539   0.00239   0.00239   0.00239   0.00239
           A2           0.01539   0.00239   0.00239   0.00239   0.00239
           A3          -0.03078  -0.00477  -0.00477  -0.00477  -0.00477
           A4           0.01539   0.00239   0.00239   0.00239   0.00239
           A5           0.01539   0.00239   0.00239   0.00239   0.00239
           A6          -0.03078  -0.00477  -0.00477  -0.00477  -0.00477
           D1           0.00000   0.00000   0.00000   0.00000   0.00000
           D2           0.00000   0.00000   0.00000   0.00000   0.00000
           D3           0.00000   0.00000   0.00000   0.00000   0.00000
           D4           0.00000   0.00000   0.00000   0.00000   0.00000
                          A1        A2        A3        A4        A5
           A1           0.15815
           A2          -0.00185   0.15815
           A3           0.00371   0.00371   0.15259
           A4          -0.00185  -0.00185   0.00371   0.15815
           A5          -0.00185  -0.00185   0.00371  -0.00185   0.15815
           A6           0.00371   0.00371  -0.00741   0.00371   0.00371
           D1           0.00000   0.00000   0.00000   0.00000   0.00000
           D2           0.00000   0.00000   0.00000   0.00000   0.00000
           D3           0.00000   0.00000   0.00000   0.00000   0.00000
           D4           0.00000   0.00000   0.00000   0.00000   0.00000
                          A6        D1        D2        D3        D4
           A6           0.15259
           D1           0.00000   0.02681
           D2           0.00000   0.00000   0.02681
           D3           0.00000   0.00000   0.00000   0.02681
           D4           0.00000   0.00000   0.00000   0.00000   0.02681
 ITU=  1  1  1  0
 Use linear search instead of GDIIS.
     Eigenvalues ---    0.02681   0.02681   0.02681   0.13314   0.16000
     Eigenvalues ---    0.16000   0.16000   0.37230   0.37230   0.37230
     Eigenvalues ---    0.43829   0.94620
 RFO step:  Lambda=-3.73567353D-07 EMin= 2.68137376D-02
 Quartic linear search produced a step of -0.08850.
 Iteration  1 RMS(Cart)=  0.00036805 RMS(Int)=  0.00000003
 Iteration  2 RMS(Cart)=  0.00000003 RMS(Int)=  0.00000000
 ClnCor:  largest displacement from symmetrization is 3.30D-13 for atom     2.
 Variable       Old X    -DE/DX   Delta X   Delta X   Delta X     New X
                                 (Linear)    (Quad)   (Total)
    R1        2.46805   0.00001   0.00023  -0.00020   0.00003   2.46808
    R2        2.04404   0.00030   0.00030   0.00037   0.00067   2.04471
    R3        2.04404   0.00030   0.00030   0.00037   0.00067   2.04471
    R4        2.04404   0.00030   0.00030   0.00037   0.00067   2.04471
    R5        2.04404   0.00030   0.00030   0.00037   0.00067   2.04471
    A1        2.13222   0.00002   0.00034  -0.00024   0.00010   2.13232
    A2        2.13222   0.00002   0.00034  -0.00024   0.00010   2.13232
    A3        2.01874  -0.00004  -0.00067   0.00048  -0.00020   2.01854
    A4        2.13222   0.00002   0.00034  -0.00024   0.00010   2.13232
    A5        2.13222   0.00002   0.00034  -0.00024   0.00010   2.13232
    A6        2.01874  -0.00004  -0.00067   0.00048  -0.00020   2.01854
    D1        0.00000   0.00000   0.00000   0.00000   0.00000   0.00000
    D2        3.14159   0.00000   0.00000   0.00000   0.00000   3.14159
    D3        3.14159   0.00000   0.00000   0.00000   0.00000   3.14159
    D4        0.00000   0.00000   0.00000   0.00000   0.00000   0.00000
         Item               Value     Threshold  Converged?
 Maximum Force            0.000296     0.000450     YES
 RMS     Force            0.000154     0.000300     YES
 Maximum Displacement     0.000667     0.001800     YES
 RMS     Displacement     0.000368     0.001200     YES
 Predicted change in Energy=-4.095665D-07
 Optimization completed.
    -- Stationary point found.
                           ----------------------------
                           !   Optimized Parameters   !
                           ! (Angstroms and Degrees)  !
 --------------------------                            --------------------------
 ! Name  Definition              Value          Derivative Info.                !
 --------------------------------------------------------------------------------
 ! R1    R(1,2)                  1.306          -DE/DX =    0.0                 !
 ! R2    R(1,4)                  1.0817         -DE/DX =    0.0003              !
 ! R3    R(1,6)                  1.0817         -DE/DX =    0.0003              !
 ! R4    R(2,3)                  1.0817         -DE/DX =    0.0003              !
 ! R5    R(2,5)                  1.0817         -DE/DX =    0.0003              !
 ! A1    A(2,1,4)              122.1674         -DE/DX =    0.0                 !
 ! A2    A(2,1,6)              122.1674         -DE/DX =    0.0                 !
 ! A3    A(4,1,6)              115.6651         -DE/DX =    0.0                 !
 ! A4    A(1,2,3)              122.1674         -DE/DX =    0.0                 !
 ! A5    A(1,2,5)              122.1674         -DE/DX =    0.0                 !
 ! A6    A(3,2,5)              115.6651         -DE/DX =    0.0                 !
 ! D1    D(4,1,2,3)              0.0            -DE/DX =    0.0                 !
 ! D2    D(4,1,2,5)            180.0            -DE/DX =    0.0                 !
 ! D3    D(6,1,2,3)            180.0            -DE/DX =    0.0                 !
 ! D4    D(6,1,2,5)              0.0            -DE/DX =    0.0                 !
 --------------------------------------------------------------------------------
 GradGradGradGradGradGradGradGradGradGradGradGradGradGradGradGradGradGrad

                          Input orientation:                          
 ---------------------------------------------------------------------
 Center     Atomic      Atomic             Coordinates (Angstroms)
 Number     Number       Type             X           Y           Z
 ---------------------------------------------------------------------
      1          6           0       -1.310675    1.539791    0.000000
      2          6           0       -0.079387    1.104293    0.000000
      3          1           0        0.768838    1.775485    0.000000
      4          1           0       -1.548272    2.595031    0.000000
      5          1           0        0.158211    0.049053    0.000000
      6          1           0       -2.158900    0.868599    0.000000
 ---------------------------------------------------------------------
                    Distance matrix (angstroms):
                    1          2          3          4          5
     1  C    0.000000
     2  C    1.306035   0.000000
     3  H    2.092827   1.081658   0.000000
     4  H    1.081658   2.092827   2.457775   0.000000
     5  H    2.092827   1.081658   1.831238   3.064978   0.000000
     6  H    1.081658   2.092827   3.064978   1.831238   2.457775
                    6
     6  H    0.000000
 Stoichiometry    C2H4
 Framework group  D2H[C2"(C.C),SG(H4)]
 Deg. of freedom     3
 Full point group                 D2H     NOp   8
 Largest Abelian subgroup         D2H     NOp   8
 Largest concise Abelian subgroup D2      NOp   4
                         Standard orientation:                         
 ---------------------------------------------------------------------
 Center     Atomic      Atomic             Coordinates (Angstroms)
 Number     Number       Type             X           Y           Z
 ---------------------------------------------------------------------
      1          6           0        0.000000    0.000000    0.653018
      2          6           0        0.000000    0.000000   -0.653018
      3          1           0        0.000000    0.915619   -1.228888
      4          1           0        0.000000    0.915619    1.228888
      5          1           0        0.000000   -0.915619   -1.228888
      6          1           0        0.000000   -0.915619    1.228888
 ---------------------------------------------------------------------
 Rotational constants (GHZ):    149.5348257     30.9624934     25.6511901

 **********************************************************************

            Population analysis using the SCF density.

 **********************************************************************

 Orbital symmetries:
       Occupied  (AG) (B1U) (AG) (B1U) (B2U) (AG) (B3G) (B3U)
       Virtual   (B2G) (B2U) (AG) (B1U) (B3G) (B1U)
 The electronic state is 1-AG.
 Alpha  occ. eigenvalues --  -11.02170 -11.02066  -0.98772  -0.74585  -0.60578
 Alpha  occ. eigenvalues --   -0.54026  -0.45821  -0.33551
 Alpha virt. eigenvalues --    0.32828   0.61919   0.70016   0.70401   0.94816
 Alpha virt. eigenvalues --    1.02781
          Condensed to atoms (all electrons):
               1          2          3          4          5          6
     1  C    4.780004   0.612564  -0.025911   0.393242  -0.025911   0.393242
     2  C    0.612564   4.780004   0.393242  -0.025911   0.393242  -0.025911
     3  H   -0.025911   0.393242   0.596737  -0.005085  -0.024720   0.002122
     4  H    0.393242  -0.025911  -0.005085   0.596737   0.002122  -0.024720
     5  H   -0.025911   0.393242  -0.024720   0.002122   0.596737  -0.005085
     6  H    0.393242  -0.025911   0.002122  -0.024720  -0.005085   0.596737
 Mulliken charges:
               1
     1  C   -0.127230
     2  C   -0.127230
     3  H    0.063615
     4  H    0.063615
     5  H    0.063615
     6  H    0.063615
 Sum of Mulliken charges =   0.00000
 Mulliken charges with hydrogens summed into heavy atoms:
               1
     1  C    0.000000
     2  C    0.000000
 Electronic spatial extent (au):  <R**2>=             79.5174
 Charge=              0.0000 electrons
 Dipole moment (field-independent basis, Debye):
    X=              0.0000    Y=              0.0000    Z=              0.0000  Tot=              0.0000
 Quadrupole moment (field-independent basis, Debye-Ang):
   XX=            -13.4615   YY=            -11.8439   ZZ=            -11.9476
   XY=              0.0000   XZ=              0.0000   YZ=              0.0000
 Traceless Quadrupole moment (field-independent basis, Debye-Ang):
   XX=             -1.0438   YY=              0.5737   ZZ=              0.4701
   XY=              0.0000   XZ=              0.0000   YZ=              0.0000
 Octapole moment (field-independent basis, Debye-Ang**2):
  XXX=              0.0000  YYY=              0.0000  ZZZ=              0.0000  XYY=              0.0000
  XXY=              0.0000  XXZ=              0.0000  XZZ=              0.0000  YZZ=              0.0000
  YYZ=              0.0000  XYZ=              0.0000
 Hexadecapole moment (field-independent basis, Debye-Ang**3):
 XXXX=            -10.8715 YYYY=            -23.8022 ZZZZ=            -62.3559 XXXY=              0.0000
 XXXZ=              0.0000 YYYX=              0.0000 YYYZ=              0.0000 ZZZX=              0.0000
 ZZZY=              0.0000 XXYY=             -6.2723 XXZZ=            -12.6807 YYZZ=            -12.2217
 XXYZ=              0.0000 YYXZ=              0.0000 ZZXY=              0.0000
 N-N= 3.375021774621D+01 E-N=-2.468447211453D+02  KE= 7.662776739392D+01
 Symmetry AG   KE= 3.658247492037D+01
 Symmetry B1G  KE= 0.000000000000D+00
 Symmetry B2G  KE= 1.157499463679D-33
 Symmetry B3G  KE= 2.105188107440D+00
 Symmetry AU   KE= 0.000000000000D+00
 Symmetry B1U  KE= 3.364843525576D+01
 Symmetry B2U  KE= 1.766281919650D+00
 Symmetry B3U  KE= 2.525387190694D+00
 1\1\GINC-MAYANK-HP\FOpt\RHF\STO-3G\C2H4\MAYANK\19-Feb-2025\0\\# opt fr
 eq hf/sto-3g geom=connectivity\\Title Card Required\\0,1\C,-1.31067467
 85,1.5397911814,0.\C,-0.0793868415,1.1042930686,0.\H,0.7688382504,1.77
 54850501,0.\H,-1.5482724995,2.5950313237,0.\H,0.1582109795,0.049052926
 3,0.\H,-2.1588997704,0.8685991999,0.\\Version=AM64L-G09RevD.01\State=1
 -AG\HF=-77.0739544\RMSD=1.461e-09\RMSF=1.830e-04\Dipole=0.,0.,0.\Quadr
 upole=0.3580731,0.4179774,-0.7760505,0.0242173,0.,0.\PG=D02H [C2"(C1.C
 1),SG(H4)]\\@


 A FOOL CAN ASK MORE QUESTIONS THAN
 A WISE MAN CAN ANSWER.
 Job cpu time:       0 days  0 hours  0 minutes  2.1 seconds.
 File lengths (MBytes):  RWF=      5 Int=      0 D2E=      0 Chk=      1 Scr=      1
 Normal termination of Gaussian 09 at Wed Feb 19 03:22:48 2025.
 Link1:  Proceeding to internal job step number  2.
 ---------------------------------------------------------------
 #N Geom=AllCheck Guess=TCheck SCRF=Check GenChk RHF/STO-3G Freq
 ---------------------------------------------------------------
 1/10=4,29=7,30=1,38=1,40=1/1,3;
 2/12=2,40=1/2;
 3/6=3,11=1,14=-4,16=1,25=1,30=1,70=2,71=2,116=1,140=1/1,2,3;
 4/5=101/1;
 5/5=2,98=1/2;
 8/6=4,10=90,11=11/1;
 10/13=10,15=4/2;
 11/6=3,8=1,9=11,15=111,16=1/1,2,10;
 10/6=1/2;
 6/7=2,8=2,9=2,10=2,18=1,28=1/1;
 7/8=1,10=1,25=1/1,2,3,16;
 1/10=4,30=1/3;
 99//99;
 Structure from the checkpoint file:  "ethene1.chk"
 -------------------
 Title Card Required
 -------------------
 Charge =  0 Multiplicity = 1
 Redundant internal coordinates found in file.
 C,0,-1.3106746785,1.5397911814,0.
 C,0,-0.0793868415,1.1042930686,0.
 H,0,0.7688382504,1.7754850501,0.
 H,0,-1.5482724995,2.5950313237,0.
 H,0,0.1582109795,0.0490529263,0.
 H,0,-2.1588997704,0.8685991999,0.
 Recover connectivity data from disk.

 GradGradGradGradGradGradGradGradGradGradGradGradGradGradGradGradGradGrad
 Berny optimization.
 Initialization pass.
                           ----------------------------
                           !    Initial Parameters    !
                           ! (Angstroms and Degrees)  !
 --------------------------                            --------------------------
 ! Name  Definition              Value          Derivative Info.                !
 --------------------------------------------------------------------------------
 ! R1    R(1,2)                  1.306          calculate D2E/DX2 analytically  !
 ! R2    R(1,4)                  1.0817         calculate D2E/DX2 analytically  !
 ! R3    R(1,6)                  1.0817         calculate D2E/DX2 analytically  !
 ! R4    R(2,3)                  1.0817         calculate D2E/DX2 analytically  !
 ! R5    R(2,5)                  1.0817         calculate D2E/DX2 analytically  !
 ! A1    A(2,1,4)              122.1674         calculate D2E/DX2 analytically  !
 ! A2    A(2,1,6)              122.1674         calculate D2E/DX2 analytically  !
 ! A3    A(4,1,6)              115.6651         calculate D2E/DX2 analytically  !
 ! A4    A(1,2,3)              122.1674         calculate D2E/DX2 analytically  !
 ! A5    A(1,2,5)              122.1674         calculate D2E/DX2 analytically  !
 ! A6    A(3,2,5)              115.6651         calculate D2E/DX2 analytically  !
 ! D1    D(4,1,2,3)              0.0            calculate D2E/DX2 analytically  !
 ! D2    D(4,1,2,5)            180.0            calculate D2E/DX2 analytically  !
 ! D3    D(6,1,2,3)            180.0            calculate D2E/DX2 analytically  !
 ! D4    D(6,1,2,5)              0.0            calculate D2E/DX2 analytically  !
 --------------------------------------------------------------------------------
 Trust Radius=3.00D-01 FncErr=1.00D-07 GrdErr=1.00D-07
 Number of steps in this run=      2 maximum allowed number of steps=      2.
 GradGradGradGradGradGradGradGradGradGradGradGradGradGradGradGradGradGrad

                          Input orientation:                          
 ---------------------------------------------------------------------
 Center     Atomic      Atomic             Coordinates (Angstroms)
 Number     Number       Type             X           Y           Z
 ---------------------------------------------------------------------
      1          6           0       -1.310675    1.539791    0.000000
      2          6           0       -0.079387    1.104293    0.000000
      3          1           0        0.768838    1.775485    0.000000
      4          1           0       -1.548272    2.595031    0.000000
      5          1           0        0.158211    0.049053    0.000000
      6          1           0       -2.158900    0.868599    0.000000
 ---------------------------------------------------------------------
                    Distance matrix (angstroms):
                    1          2          3          4          5
     1  C    0.000000
     2  C    1.306035   0.000000
     3  H    2.092827   1.081658   0.000000
     4  H    1.081658   2.092827   2.457775   0.000000
     5  H    2.092827   1.081658   1.831238   3.064978   0.000000
     6  H    1.081658   2.092827   3.064978   1.831238   2.457775
                    6
     6  H    0.000000
 Stoichiometry    C2H4
 Framework group  D2H[C2"(C.C),SG(H4)]
 Deg. of freedom     3
 Full point group                 D2H     NOp   8
 Largest Abelian subgroup         D2H     NOp   8
 Largest concise Abelian subgroup D2      NOp   4
                         Standard orientation:                         
 ---------------------------------------------------------------------
 Center     Atomic      Atomic             Coordinates (Angstroms)
 Number     Number       Type             X           Y           Z
 ---------------------------------------------------------------------
      1          6           0        0.000000    0.000000    0.653018
      2          6           0        0.000000    0.000000   -0.653018
      3          1           0        0.000000    0.915619   -1.228888
      4          1           0        0.000000    0.915619    1.228888
      5          1           0        0.000000   -0.915619   -1.228888
      6          1           0        0.000000   -0.915619    1.228888
 ---------------------------------------------------------------------
 Rotational constants (GHZ):    149.5348257     30.9624934     25.6511901
 Standard basis: STO-3G (5D, 7F)
 There are     4 symmetry adapted cartesian basis functions of AG  symmetry.
 There are     0 symmetry adapted cartesian basis functions of B1G symmetry.
 There are     1 symmetry adapted cartesian basis functions of B2G symmetry.
 There are     2 symmetry adapted cartesian basis functions of B3G symmetry.
 There are     0 symmetry adapted cartesian basis functions of AU  symmetry.
 There are     4 symmetry adapted cartesian basis functions of B1U symmetry.
 There are     2 symmetry adapted cartesian basis functions of B2U symmetry.
 There are     1 symmetry adapted cartesian basis functions of B3U symmetry.
 There are     4 symmetry adapted basis functions of AG  symmetry.
 There are     0 symmetry adapted basis functions of B1G symmetry.
 There are     1 symmetry adapted basis functions of B2G symmetry.
 There are     2 symmetry adapted basis functions of B3G symmetry.
 There are     0 symmetry adapted basis functions of AU  symmetry.
 There are     4 symmetry adapted basis functions of B1U symmetry.
 There are     2 symmetry adapted basis functions of B2U symmetry.
 There are     1 symmetry adapted basis functions of B3U symmetry.
    14 basis functions,    42 primitive gaussians,    14 cartesian basis functions
     8 alpha electrons        8 beta electrons
       nuclear repulsion energy        33.7502177462 Hartrees.
 NAtoms=    6 NActive=    6 NUniq=    2 SFac= 4.00D+00 NAtFMM=   60 NAOKFM=F Big=F
 Integral buffers will be    131072 words long.
 Raffenetti 1 integral format.
 Two-electron integral symmetry is turned on.
 One-electron integrals computed using PRISM.
 NBasis=    14 RedAO= T EigKep=  2.28D-01  NBF=     4     0     1     2     0     4     2     1
 NBsUse=    14 1.00D-06 EigRej= -1.00D+00 NBFU=     4     0     1     2     0     4     2     1
 Initial guess from the checkpoint file:  "ethene1.chk"
 B after Tr=     0.000000    0.000000    0.000000
         Rot=    1.000000    0.000000    0.000000    0.000000 Ang=   0.00 deg.
 Initial guess orbital symmetries:
       Occupied  (AG) (B1U) (AG) (B1U) (B2U) (AG) (B3G) (B3U)
       Virtual   (B2G) (B2U) (AG) (B1U) (B3G) (B1U)
 Keep R1 ints in memory in symmetry-blocked form, NReq=832595.
 Requested convergence on RMS density matrix=1.00D-08 within 128 cycles.
 Requested convergence on MAX density matrix=1.00D-06.
 Requested convergence on             energy=1.00D-06.
 No special actions if energy rises.
 Skip diagonalization as Alpha Fock matrix is already diagonal.
 SCF Done:  E(RHF) =  -77.0739543896     A.U. after    1 cycles
            NFock=  1  Conv=0.00D+00     -V/T= 2.0058
 Range of M.O.s used for correlation:     1    14
 NBasis=    14 NAE=     8 NBE=     8 NFC=     0 NFV=     0
 NROrb=     14 NOA=     8 NOB=     8 NVA=     6 NVB=     6
          Differentiating once with respect to electric field.
                with respect to dipole field.
          Electric field/nuclear overlap derivatives assumed to be zero.
 Keep R1 ints in memory in symmetry-blocked form, NReq=815178.
          There are     3 degrees of freedom in the 1st order CPHF.  IDoFFX=0 NUNeed=     3.
      3 vectors produced by pass  0 Test12= 1.60D-15 3.33D-08 XBig12= 5.05D+00 1.92D+00.
 AX will form     3 AO Fock derivatives at one time.
      3 vectors produced by pass  1 Test12= 1.60D-15 3.33D-08 XBig12= 4.02D-01 3.21D-01.
      3 vectors produced by pass  2 Test12= 1.60D-15 3.33D-08 XBig12= 2.11D-02 9.10D-02.
      2 vectors produced by pass  3 Test12= 1.60D-15 3.33D-08 XBig12= 9.69D-05 6.58D-03.
      2 vectors produced by pass  4 Test12= 1.60D-15 3.33D-08 XBig12= 4.44D-08 9.48D-05.
      2 vectors produced by pass  5 Test12= 1.60D-15 3.33D-08 XBig12= 1.61D-10 7.49D-06.
      1 vectors produced by pass  6 Test12= 1.60D-15 3.33D-08 XBig12= 1.11D-12 6.59D-07.
 InvSVY:  IOpt=1 It=  1 EMax= 8.47D-17
 Solved reduced A of dimension    16 with     3 vectors.
 End of Minotr F.D. properties file   721 does not exist.
 End of Minotr F.D. properties file   722 does not exist.
 End of Minotr F.D. properties file   788 does not exist.
 Symmetrizing basis deriv contribution to polar:
 IMax=3 JMax=2 DiffMx= 0.00D+00
 G2DrvN: will do     7 centers at a time, making    1 passes.
 PxScal for G2LodP:  IOpCl= 0 ISclPx=1 IMOff=     1 NMtTot=     4 NTT=     105 ScalPx= 2.32D+00
 Calling FoFCou, ICntrl=  3107 FMM=F I1Cent=   0 AccDes= 0.00D+00.
 End of G2Drv F.D. properties file   721 does not exist.
 End of G2Drv F.D. properties file   722 does not exist.
 End of G2Drv F.D. properties file   788 does not exist.
          IDoAtm=111111
          Differentiating once with respect to electric field.
                with respect to dipole field.
          Differentiating once with respect to nuclear coordinates.
 Keep R1 ints in memory in symmetry-blocked form, NReq=815319.
          There are     9 degrees of freedom in the 1st order CPHF.  IDoFFX=4 NUNeed=     9.
 Will reuse    3 saved solutions.
      6 vectors produced by pass  0 Test12= 5.33D-16 1.11D-08 XBig12= 2.88D-02 1.12D-01.
 AX will form     6 AO Fock derivatives at one time.
      6 vectors produced by pass  1 Test12= 5.33D-16 1.11D-08 XBig12= 2.72D-04 6.92D-03.
      6 vectors produced by pass  2 Test12= 5.33D-16 1.11D-08 XBig12= 4.00D-06 9.70D-04.
      6 vectors produced by pass  3 Test12= 5.33D-16 1.11D-08 XBig12= 8.84D-09 3.91D-05.
      6 vectors produced by pass  4 Test12= 5.33D-16 1.11D-08 XBig12= 2.69D-11 2.23D-06.
      6 vectors produced by pass  5 Test12= 5.33D-16 1.11D-08 XBig12= 5.77D-14 8.69D-08.
 InvSVY:  IOpt=1 It=  1 EMax= 2.22D-16
 Solved reduced A of dimension    36 with     6 vectors.
 Isotropic polarizability for W=    0.000000       10.73 Bohr**3.
 End of Minotr F.D. properties file   721 does not exist.
 End of Minotr F.D. properties file   722 does not exist.
 End of Minotr F.D. properties file   788 does not exist.

 **********************************************************************

            Population analysis using the SCF density.

 **********************************************************************

 Orbital symmetries:
       Occupied  (AG) (B1U) (AG) (B1U) (B2U) (AG) (B3G) (B3U)
       Virtual   (B2G) (B2U) (AG) (B1U) (B3G) (B1U)
 The electronic state is 1-AG.
 Alpha  occ. eigenvalues --  -11.02170 -11.02066  -0.98772  -0.74585  -0.60578
 Alpha  occ. eigenvalues --   -0.54026  -0.45821  -0.33551
 Alpha virt. eigenvalues --    0.32828   0.61919   0.70016   0.70401   0.94816
 Alpha virt. eigenvalues --    1.02781
          Condensed to atoms (all electrons):
               1          2          3          4          5          6
     1  C    4.780004   0.612564  -0.025911   0.393242  -0.025911   0.393242
     2  C    0.612564   4.780004   0.393242  -0.025911   0.393242  -0.025911
     3  H   -0.025911   0.393242   0.596737  -0.005085  -0.024720   0.002122
     4  H    0.393242  -0.025911  -0.005085   0.596737   0.002122  -0.024720
     5  H   -0.025911   0.393242  -0.024720   0.002122   0.596737  -0.005085
     6  H    0.393242  -0.025911   0.002122  -0.024720  -0.005085   0.596737
 Mulliken charges:
               1
     1  C   -0.127230
     2  C   -0.127230
     3  H    0.063615
     4  H    0.063615
     5  H    0.063615
     6  H    0.063615
 Sum of Mulliken charges =   0.00000
 Mulliken charges with hydrogens summed into heavy atoms:
               1
     1  C    0.000000
     2  C    0.000000
 APT charges:
               1
     1  C   -0.099648
     2  C   -0.099648
     3  H    0.049824
     4  H    0.049824
     5  H    0.049824
     6  H    0.049824
 Sum of APT charges =   0.00000
 APT charges with hydrogens summed into heavy atoms:
               1
     1  C    0.000000
     2  C    0.000000
 Electronic spatial extent (au):  <R**2>=             79.5174
 Charge=              0.0000 electrons
 Dipole moment (field-independent basis, Debye):
    X=              0.0000    Y=              0.0000    Z=              0.0000  Tot=              0.0000
 Quadrupole moment (field-independent basis, Debye-Ang):
   XX=            -13.4615   YY=            -11.8439   ZZ=            -11.9476
   XY=              0.0000   XZ=              0.0000   YZ=              0.0000
 Traceless Quadrupole moment (field-independent basis, Debye-Ang):
   XX=             -1.0438   YY=              0.5737   ZZ=              0.4701
   XY=              0.0000   XZ=              0.0000   YZ=              0.0000
 Octapole moment (field-independent basis, Debye-Ang**2):
  XXX=              0.0000  YYY=              0.0000  ZZZ=              0.0000  XYY=              0.0000
  XXY=              0.0000  XXZ=              0.0000  XZZ=              0.0000  YZZ=              0.0000
  YYZ=              0.0000  XYZ=              0.0000
 Hexadecapole moment (field-independent basis, Debye-Ang**3):
 XXXX=            -10.8715 YYYY=            -23.8022 ZZZZ=            -62.3559 XXXY=              0.0000
 XXXZ=              0.0000 YYYX=              0.0000 YYYZ=              0.0000 ZZZX=              0.0000
 ZZZY=              0.0000 XXYY=             -6.2723 XXZZ=            -12.6807 YYZZ=            -12.2217
 XXYZ=              0.0000 YYXZ=              0.0000 ZZXY=              0.0000
 N-N= 3.375021774621D+01 E-N=-2.468447211453D+02  KE= 7.662776739392D+01
 Symmetry AG   KE= 3.658247492037D+01
 Symmetry B1G  KE= 0.000000000000D+00
 Symmetry B2G  KE= 1.157499463679D-33
 Symmetry B3G  KE= 2.105188107440D+00
 Symmetry AU   KE= 0.000000000000D+00
 Symmetry B1U  KE= 3.364843525576D+01
 Symmetry B2U  KE= 1.766281919650D+00
 Symmetry B3U  KE= 2.525387190694D+00
  Exact polarizability:   2.470   0.000  10.740   0.000   0.000  18.995
 Approx polarizability:   1.887   0.000   8.844   0.000   0.000  16.440
 Calling FoFJK, ICntrl=    100127 FMM=F ISym2X=1 I1Cent= 0 IOpClX= 0 NMat=1 NMatS=1 NMatT=0.
 Full mass-weighted force constant matrix:
 Low frequencies ---  -59.6123  -30.4035  -19.4829    0.0006    0.0007    0.0010
 Low frequencies ---  945.8343 1170.6233 1178.7148
 Diagonal vibrational polarizability:
        0.6012691       0.0087911       0.0836438
 Diagonal vibrational hyperpolarizability:
        0.0000000       0.0000000       0.0000000
 Harmonic frequencies (cm**-1), IR intensities (KM/Mole), Raman scattering
 activities (A**4/AMU), depolarization ratios for plane and unpolarized
 incident light, reduced masses (AMU), force constants (mDyne/A),
 and normal coordinates:
                      1                      2                      3
                     B2U                    B3U                    B2G
 Frequencies --    945.8343              1170.6233              1178.7142
 Red. masses --      1.0430                 1.1607                 1.5309
 Frc consts  --      0.5498                 0.9372                 1.2531
 IR Inten    --      0.2921                30.6175                 0.0000
 Raman Activ --      0.0000                 0.0000                 0.9636
 Depolar (P) --      0.0000                 0.0000                 0.7500
 Depolar (U) --      0.0000                 0.0000                 0.8571
  Atom  AN      X      Y      Z        X      Y      Z        X      Y      Z
     1   6     0.00   0.04   0.00     0.08   0.00   0.00     0.15   0.00   0.00
     2   6     0.00   0.04   0.00     0.08   0.00   0.00    -0.15   0.00   0.00
     3   1     0.00  -0.24  -0.44    -0.50   0.00   0.00     0.49   0.00   0.00
     4   1     0.00  -0.24   0.44    -0.50   0.00   0.00    -0.49   0.00   0.00
     5   1     0.00  -0.24   0.44    -0.50   0.00   0.00     0.49   0.00   0.00
     6   1     0.00  -0.24  -0.44    -0.50   0.00   0.00    -0.49   0.00   0.00
                      4                      5                      6
                     AU                     B3G                    AG
 Frequencies --   1276.1972              1442.3996              1617.7371
 Red. masses --      1.0078                 1.5273                 1.1838
 Frc consts  --      0.9671                 1.8722                 1.8254
 IR Inten    --      0.0000                 0.0000                 0.0000
 Raman Activ --      0.0000                 2.8388                41.2875
 Depolar (P) --      0.0000                 0.7500                 0.5466
 Depolar (U) --      0.0000                 0.8571                 0.7068
  Atom  AN      X      Y      Z        X      Y      Z        X      Y      Z
     1   6     0.00   0.00   0.00     0.00   0.15   0.00     0.00   0.00  -0.09
     2   6     0.00   0.00   0.00     0.00  -0.15   0.00     0.00   0.00   0.09
     3   1     0.50   0.00   0.00     0.00   0.14   0.47     0.00   0.20   0.45
     4   1    -0.50   0.00   0.00     0.00  -0.14   0.47     0.00   0.20  -0.45
     5   1    -0.50   0.00   0.00     0.00   0.14  -0.47     0.00  -0.20   0.45
     6   1     0.50   0.00   0.00     0.00  -0.14  -0.47     0.00  -0.20  -0.45
                      7                      8                      9
                     B1U                    AG                     B1U
 Frequencies --   1743.4219              2040.4540              3636.4968
 Red. masses --      1.1086                 3.2432                 1.0507
 Frc consts  --      1.9853                 7.9556                 8.1868
 IR Inten    --      1.4412                 0.0000                34.8320
 Raman Activ --      0.0000                11.1093                 0.0000
 Depolar (P) --      0.0000                 0.1025                 0.0000
 Depolar (U) --      0.0000                 0.1860                 0.0000
  Atom  AN      X      Y      Z        X      Y      Z        X      Y      Z
     1   6     0.00   0.00   0.07     0.00   0.00   0.32     0.00   0.00   0.04
     2   6     0.00   0.00   0.07     0.00   0.00  -0.32     0.00   0.00   0.04
     3   1     0.00  -0.29  -0.40     0.00   0.40   0.20     0.00   0.42  -0.26
     4   1     0.00   0.29  -0.40     0.00   0.40  -0.20     0.00  -0.42  -0.26
     5   1     0.00   0.29  -0.40     0.00  -0.40   0.20     0.00  -0.42  -0.26
     6   1     0.00  -0.29  -0.40     0.00  -0.40  -0.20     0.00   0.42  -0.26
                     10                     11                     12
                     AG                     B3G                    B2U
 Frequencies --   3682.9319              3804.7960              3817.9958
 Red. masses --      1.0932                 1.1199                 1.1173
 Frc consts  --      8.7364                 9.5517                 9.5960
 IR Inten    --      0.0000                 0.0000                 0.0024
 Raman Activ --     75.6389                67.9808                 0.0000
 Depolar (P) --      0.1268                 0.7500                 0.0000
 Depolar (U) --      0.2250                 0.8571                 0.0000
  Atom  AN      X      Y      Z        X      Y      Z        X      Y      Z
     1   6     0.00   0.00  -0.06     0.00  -0.07   0.00     0.00   0.07   0.00
     2   6     0.00   0.00   0.06     0.00   0.07   0.00     0.00   0.07   0.00
     3   1     0.00   0.42  -0.26     0.00  -0.42   0.26     0.00  -0.42   0.27
     4   1     0.00   0.42   0.26     0.00   0.42   0.26     0.00  -0.42  -0.27
     5   1     0.00  -0.42  -0.26     0.00  -0.42  -0.26     0.00  -0.42  -0.27
     6   1     0.00  -0.42   0.26     0.00   0.42  -0.26     0.00  -0.42   0.27

 -------------------
 - Thermochemistry -
 -------------------
 Temperature   298.150 Kelvin.  Pressure   1.00000 Atm.
 Atom     1 has atomic number  6 and mass  12.00000
 Atom     2 has atomic number  6 and mass  12.00000
 Atom     3 has atomic number  1 and mass   1.00783
 Atom     4 has atomic number  1 and mass   1.00783
 Atom     5 has atomic number  1 and mass   1.00783
 Atom     6 has atomic number  1 and mass   1.00783
 Molecular mass:    28.03130 amu.
 Principal axes and moments of inertia in atomic units:
                           1         2         3
     Eigenvalues --    12.06904  58.28798  70.35702
           X            0.00000   0.00000   1.00000
           Y            0.00000   1.00000   0.00000
           Z            1.00000   0.00000   0.00000
 This molecule is an asymmetric top.
 Rotational symmetry number  4.
 Rotational temperatures (Kelvin)      7.17653     1.48596     1.23106
 Rotational constants (GHZ):         149.53483    30.96249    25.65119
 Zero-point vibrational energy     157653.5 (Joules/Mol)
                                   37.68008 (Kcal/Mol)
 Vibrational temperatures:   1360.84  1684.26  1695.90  1836.16  2075.29
          (Kelvin)           2327.56  2508.39  2935.75  5232.10  5298.91
                             5474.25  5493.24
 
 Zero-point correction=                           0.060047 (Hartree/Particle)
 Thermal correction to Energy=                    0.062986
 Thermal correction to Enthalpy=                  0.063930
 Thermal correction to Gibbs Free Energy=         0.039232
 Sum of electronic and zero-point Energies=            -77.013907
 Sum of electronic and thermal Energies=               -77.010969
 Sum of electronic and thermal Enthalpies=             -77.010024
 Sum of electronic and thermal Free Energies=          -77.034722
 
                     E (Thermal)             CV                S
                      KCal/Mol        Cal/Mol-Kelvin    Cal/Mol-Kelvin
 Total                   39.524              7.188             51.981
 Electronic               0.000              0.000              0.000
 Translational            0.889              2.981             35.927
 Rotational               0.889              2.981             15.789
 Vibrational             37.747              1.227              0.266
                       Q            Log10(Q)             Ln(Q)
 Total Bot       0.900548D-18        -18.045493        -41.551284
 Total V=0       0.375117D+10          9.574167         22.045334
 Vib (Bot)       0.245200D-27        -27.610479        -63.575478
 Vib (V=0)       0.102136D+01          0.009181          0.021139
 Electronic      0.100000D+01          0.000000          0.000000
 Translational   0.583338D+07          6.765920         15.579107
 Rotational      0.629602D+03          2.799066          6.445087
 ***** Axes restored to original set *****
 -------------------------------------------------------------------
 Center     Atomic                   Forces (Hartrees/Bohr)
 Number     Number              X              Y              Z
 -------------------------------------------------------------------
      1        6           0.000332117   -0.000117467    0.000000000
      2        6          -0.000332117    0.000117467    0.000000000
      3        1           0.000251144    0.000159919    0.000000000
      4        1          -0.000094748    0.000282259    0.000000000
      5        1           0.000094748   -0.000282259    0.000000000
      6        1          -0.000251144   -0.000159919    0.000000000
 -------------------------------------------------------------------
 Cartesian Forces:  Max     0.000332117 RMS     0.000182998
 FormGI is forming the generalized inverse of G from B-inverse, IUseBI=4.

 GradGradGradGradGradGradGradGradGradGradGradGradGradGradGradGradGradGrad
 Berny optimization.
 Internal  Forces:  Max     0.000296177 RMS     0.000154112
 Search for a local minimum.
 Step number   1 out of a maximum of    2
 All quantities printed in internal units (Hartrees-Bohrs-Radians)
 Second derivative matrix not updated -- analytic derivatives used.
 The second derivative matrix:
                          R1        R2        R3        R4        R5
           R1           0.92476
           R2          -0.00085   0.49004
           R3          -0.00085  -0.00603   0.49004
           R4          -0.00085   0.00113   0.00058   0.49004
           R5          -0.00085   0.00058   0.00113  -0.00603   0.49004
           A1           0.01290   0.00445  -0.01119  -0.00376   0.00371
           A2           0.01290  -0.01119   0.00445   0.00371  -0.00376
           A3          -0.02579   0.00674   0.00674   0.00005   0.00005
           A4           0.01290  -0.00376   0.00371   0.00445  -0.01119
           A5           0.01290   0.00371  -0.00376  -0.01119   0.00445
           A6          -0.02579   0.00005   0.00005   0.00674   0.00674
           D1           0.00000   0.00000   0.00000   0.00000   0.00000
           D2           0.00000   0.00000   0.00000   0.00000   0.00000
           D3           0.00000   0.00000   0.00000   0.00000   0.00000
           D4           0.00000   0.00000   0.00000   0.00000   0.00000
                          A1        A2        A3        A4        A5
           A1           0.10758
           A2          -0.05774   0.10758
           A3          -0.04984  -0.04984   0.09968
           A4          -0.01322   0.01472  -0.00149   0.10758
           A5           0.01472  -0.01322  -0.00149  -0.05774   0.10758
           A6          -0.00149  -0.00149   0.00299  -0.04984  -0.04984
           D1           0.00000   0.00000   0.00000   0.00000   0.00000
           D2           0.00000   0.00000   0.00000   0.00000   0.00000
           D3           0.00000   0.00000   0.00000   0.00000   0.00000
           D4           0.00000   0.00000   0.00000   0.00000   0.00000
                          A6        D1        D2        D3        D4
           A6           0.09968
           D1           0.00000   0.03659
           D2           0.00000   0.01165   0.04526
           D3           0.00000   0.01165  -0.02196   0.04526
           D4           0.00000  -0.01330   0.01165   0.01165   0.03659
 ITU=  0
     Eigenvalues ---    0.04659   0.04989   0.06722   0.13719   0.14464
     Eigenvalues ---    0.15101   0.19150   0.48270   0.48611   0.49681
     Eigenvalues ---    0.49728   0.92736
 Angle between quadratic step and forces=  17.73 degrees.
 Linear search not attempted -- first point.
 Iteration  1 RMS(Cart)=  0.00035967 RMS(Int)=  0.00000005
 Iteration  2 RMS(Cart)=  0.00000005 RMS(Int)=  0.00000000
 ClnCor:  largest displacement from symmetrization is 2.70D-12 for atom     5.
 Variable       Old X    -DE/DX   Delta X   Delta X   Delta X     New X
                                 (Linear)    (Quad)   (Total)
    R1        2.46805   0.00001   0.00000  -0.00001  -0.00001   2.46804
    R2        2.04404   0.00030   0.00000   0.00062   0.00062   2.04465
    R3        2.04404   0.00030   0.00000   0.00062   0.00062   2.04465
    R4        2.04404   0.00030   0.00000   0.00062   0.00062   2.04465
    R5        2.04404   0.00030   0.00000   0.00062   0.00062   2.04465
    A1        2.13222   0.00002   0.00000   0.00016   0.00016   2.13239
    A2        2.13222   0.00002   0.00000   0.00016   0.00016   2.13239
    A3        2.01874  -0.00004   0.00000  -0.00033  -0.00033   2.01841
    A4        2.13222   0.00002   0.00000   0.00016   0.00016   2.13239
    A5        2.13222   0.00002   0.00000   0.00016   0.00016   2.13239
    A6        2.01874  -0.00004   0.00000  -0.00033  -0.00033   2.01841
    D1        0.00000   0.00000   0.00000   0.00000   0.00000   0.00000
    D2        3.14159   0.00000   0.00000   0.00000   0.00000   3.14159
    D3        3.14159   0.00000   0.00000   0.00000   0.00000   3.14159
    D4        0.00000   0.00000   0.00000   0.00000   0.00000   0.00000
         Item               Value     Threshold  Converged?
 Maximum Force            0.000296     0.000450     YES
 RMS     Force            0.000154     0.000300     YES
 Maximum Displacement     0.000686     0.001800     YES
 RMS     Displacement     0.000360     0.001200     YES
 Predicted change in Energy=-3.853956D-07
 Optimization completed.
    -- Stationary point found.
                           ----------------------------
                           !   Optimized Parameters   !
                           ! (Angstroms and Degrees)  !
 --------------------------                            --------------------------
 ! Name  Definition              Value          Derivative Info.                !
 --------------------------------------------------------------------------------
 ! R1    R(1,2)                  1.306          -DE/DX =    0.0                 !
 ! R2    R(1,4)                  1.0817         -DE/DX =    0.0003              !
 ! R3    R(1,6)                  1.0817         -DE/DX =    0.0003              !
 ! R4    R(2,3)                  1.0817         -DE/DX =    0.0003              !
 ! R5    R(2,5)                  1.0817         -DE/DX =    0.0003              !
 ! A1    A(2,1,4)              122.1674         -DE/DX =    0.0                 !
 ! A2    A(2,1,6)              122.1674         -DE/DX =    0.0                 !
 ! A3    A(4,1,6)              115.6651         -DE/DX =    0.0                 !
 ! A4    A(1,2,3)              122.1674         -DE/DX =    0.0                 !
 ! A5    A(1,2,5)              122.1674         -DE/DX =    0.0                 !
 ! A6    A(3,2,5)              115.6651         -DE/DX =    0.0                 !
 ! D1    D(4,1,2,3)              0.0            -DE/DX =    0.0                 !
 ! D2    D(4,1,2,5)            180.0            -DE/DX =    0.0                 !
 ! D3    D(6,1,2,3)            180.0            -DE/DX =    0.0                 !
 ! D4    D(6,1,2,5)              0.0            -DE/DX =    0.0                 !
 --------------------------------------------------------------------------------
 GradGradGradGradGradGradGradGradGradGradGradGradGradGradGradGradGradGrad

 1\1\GINC-MAYANK-HP\Freq\RHF\STO-3G\C2H4\MAYANK\19-Feb-2025\0\\#N Geom=
 AllCheck Guess=TCheck SCRF=Check GenChk RHF/STO-3G Freq\\Title Card Re
 quired\\0,1\C,-1.3106746785,1.5397911814,0.\C,-0.0793868415,1.10429306
 86,0.\H,0.7688382504,1.7754850501,0.\H,-1.5482724995,2.5950313237,0.\H
 ,0.1582109795,0.0490529263,0.\H,-2.1588997704,0.8685991999,0.\\Version
 =AM64L-G09RevD.01\State=1-AG\HF=-77.0739544\RMSD=0.000e+00\RMSF=1.830e
 -04\ZeroPoint=0.060047\Thermal=0.0629859\Dipole=0.,0.,0.\DipoleDeriv=-
 0.1140368,0.0378998,0.,0.0378999,-0.0202871,0.,0.,0.,-0.1646213,-0.114
 0368,0.0378999,0.,0.0378998,-0.0202871,0.,0.,0.,-0.1646213,0.0759338,-
 0.033532,0.,0.0424215,-0.0087718,0.,0.,0.,0.0823106,0.0381031,-0.00436
 79,0.,-0.0803214,0.0290589,0.,0.,0.,0.0823106,0.0381031,-0.0043679,0.,
 -0.0803214,0.0290589,0.,0.,0.,0.0823106,0.0759338,-0.033532,0.,0.04242
 15,-0.0087718,0.,0.,0.,0.0823106\Polar=18.0769436,-2.5951618,11.657509
 6,0.,0.,2.4701252\PolarDeriv=-4.6389194,2.5007603,-0.0484948,0.,0.,-0.
 7042937,2.6438946,0.3561903,-0.9859881,0.,0.,0.2491039,0.,0.,0.,-5.036
 7401,1.7814606,0.,4.6389194,-2.5007602,0.0484948,0.,0.,0.7042937,-2.64
 38946,-0.3561903,0.9859881,0.,0.,-0.2491039,0.,0.,0.,5.0367401,-1.7814
 606,0.,5.3705023,1.4479079,0.3554645,0.,0.,0.0292209,1.3252769,2.69028
 15,1.8767343,0.,0.,0.2031183,0.,0.,0.,0.7373138,1.0065787,0.,-2.217310
 3,1.9577727,-0.222116,0.,0.,0.1049843,0.3944366,-1.9606179,5.6956185,0
 .,0.,0.1763213,0.,0.,0.,0.0595177,1.2463105,0.,2.2173103,-1.9577727,0.
 222116,0.,0.,-0.1049843,-0.3944366,1.9606179,-5.6956185,0.,0.,-0.17632
 13,0.,0.,0.,-0.0595177,-1.2463105,0.,-5.3705023,-1.4479079,-0.3554645,
 0.,0.,-0.0292209,-1.3252769,-2.6902815,-1.8767343,0.,0.,-0.2031183,0.,
 0.,0.,-0.7373138,-1.0065787,0.\HyperPolar=0.,0.,0.,0.,0.,0.,0.,0.,0.,0
 .\PG=D02H [C2"(C1.C1),SG(H4)]\NImag=0\\1.23083815,-0.11835090,0.938083
 47,0.,0.,0.16264657,-0.79068952,0.21840713,0.,1.23083816,0.21840713,-0
 .25043413,0.,-0.11835090,0.93808347,0.,0.,-0.07314948,0.,0.,0.16264657
 ,-0.01934544,-0.02847442,0.,-0.31925805,-0.19043008,0.,0.32850464,0.02
 070892,0.01717684,0.,-0.19505630,-0.24247234,0.,0.20303566,0.23485362,
 0.,0.,0.00891268,0.,0.,-0.05366122,0.,0.,0.03497559,-0.10043382,0.0755
 8726,0.,-0.00111133,0.04326101,0.,0.00253416,-0.00067464,0.,0.09294917
 ,0.08021348,-0.46129656,0.,-0.00592233,-0.00105727,0.,0.00029544,0.002
 06517,0.,-0.08830124,0.47040909,0.,0.,-0.05366122,0.,0.,0.00891268,0.,
 0.,-0.01266908,0.,0.,0.03497559,-0.00111133,0.04326101,0.,-0.10043382,
 0.07558726,0.,0.01156998,-0.03055313,0.,-0.00550816,0.00068074,0.,0.09
 294917,-0.00592233,-0.00105727,0.,0.08021348,-0.46129656,0.,0.01303391
 ,-0.01009794,0.,0.00068074,-0.00002248,0.,-0.08830124,0.47040909,0.,0.
 ,0.00891268,0.,0.,-0.05366122,0.,0.,0.00398474,0.,0.,0.01845730,0.,0.,
 0.03497559,-0.31925804,-0.19043008,0.,-0.01934544,-0.02847442,0.,-0.00
 400529,0.00253950,0.,0.01156998,0.01303391,0.,0.00253416,0.00029544,0.
 ,0.32850464,-0.19505630,-0.24247234,0.,0.02070892,0.01717684,0.,0.0025
 3950,-0.00152535,0.,-0.03055313,-0.01009794,0.,-0.00067464,0.00206517,
 0.,0.20303566,0.23485362,0.,0.,-0.05366122,0.,0.,0.00891268,0.,0.,0.01
 845730,0.,0.,0.00398474,0.,0.,-0.01266908,0.,0.,0.03497559\\-0.0003321
 2,0.00011747,0.,0.00033212,-0.00011747,0.,-0.00025114,-0.00015992,0.,0
 .00009475,-0.00028226,0.,-0.00009475,0.00028226,0.,0.00025114,0.000159
 92,0.\\\@


 WHEN IT COMES TO CASH FLOW, IT SEEMS LIKE THE TIDE IS ALWAYS GOING OUT.
 Job cpu time:       0 days  0 hours  0 minutes  0.9 seconds.
 File lengths (MBytes):  RWF=      5 Int=      0 D2E=      0 Chk=      1 Scr=      1
 Normal termination of Gaussian 09 at Wed Feb 19 03:22:49 2025.
