 Entering Gaussian System, Link 0=g09
 Input=/home/mayank/Desktop/software/gaussian/Gview_and_Gaussian/g09/scratch/Q5/h2o_dimer.com
 Output=/home/mayank/Desktop/software/gaussian/Gview_and_Gaussian/g09/scratch/Q5/h2o_dimer.log
 Initial command:
 /home/mayank/Desktop/software/gaussian/Gview_and_Gaussian/g09/l1.exe "/home/mayank/Desktop/software/gaussian/Gview_and_Gaussian/g09/scratch/Gau-73180.inp" -scrdir="/home/mayank/Desktop/software/gaussian/Gview_and_Gaussian/g09/scratch/"
 Entering Link 1 = /home/mayank/Desktop/software/gaussian/Gview_and_Gaussian/g09/l1.exe PID=     73183.
  
 Copyright (c) 1988,1990,1992,1993,1995,1998,2003,2009,2013,
            Gaussian, Inc.  All Rights Reserved.
  
 This is part of the Gaussian(R) 09 program.  It is based on
 the Gaussian(R) 03 system (copyright 2003, Gaussian, Inc.),
 the Gaussian(R) 98 system (copyright 1998, Gaussian, Inc.),
 the Gaussian(R) 94 system (copyright 1995, Gaussian, Inc.),
 the Gaussian 92(TM) system (copyright 1992, Gaussian, Inc.),
 the Gaussian 90(TM) system (copyright 1990, Gaussian, Inc.),
 the Gaussian 88(TM) system (copyright 1988, Gaussian, Inc.),
 the Gaussian 86(TM) system (copyright 1986, Carnegie Mellon
 University), and the Gaussian 82(TM) system (copyright 1983,
 Carnegie Mellon University). Gaussian is a federally registered
 trademark of Gaussian, Inc.
  
 This software contains proprietary and confidential information,
 including trade secrets, belonging to Gaussian, Inc.
  
 This software is provided under written license and may be
 used, copied, transmitted, or stored only in accord with that
 written license.
  
 The following legend is applicable only to US Government
 contracts under FAR:
  
                    RESTRICTED RIGHTS LEGEND
  
 Use, reproduction and disclosure by the US Government is
 subject to restrictions as set forth in subparagraphs (a)
 and (c) of the Commercial Computer Software - Restricted
 Rights clause in FAR 52.227-19.
  
 Gaussian, Inc.
 340 Quinnipiac St., Bldg. 40, Wallingford CT 06492
  
  
 ---------------------------------------------------------------
 Warning -- This program may not be used in any manner that
 competes with the business of Gaussian, Inc. or will provide
 assistance to any competitor of Gaussian, Inc.  The licensee
 of this program is prohibited from giving any competitor of
 Gaussian, Inc. access to this program.  By using this program,
 the user acknowledges that Gaussian, Inc. is engaged in the
 business of creating and licensing software in the field of
 computational chemistry and represents and warrants to the
 licensee that it is not a competitor of Gaussian, Inc. and that
 it will not use this program in any manner prohibited above.
 ---------------------------------------------------------------
  

 Cite this work as:
 Gaussian 09, Revision D.01,
 M. J. Frisch, G. W. Trucks, H. B. Schlegel, G. E. Scuseria, 
 M. A. Robb, J. R. Cheeseman, G. Scalmani, V. Barone, B. Mennucci, 
 G. A. Petersson, H. Nakatsuji, M. Caricato, X. Li, H. P. Hratchian, 
 A. F. Izmaylov, J. Bloino, G. Zheng, J. L. Sonnenberg, M. Hada, 
 M. Ehara, K. Toyota, R. Fukuda, J. Hasegawa, M. Ishida, T. Nakajima, 
 Y. Honda, O. Kitao, H. Nakai, T. Vreven, J. A. Montgomery, Jr., 
 J. E. Peralta, F. Ogliaro, M. Bearpark, J. J. Heyd, E. Brothers, 
 K. N. Kudin, V. N. Staroverov, T. Keith, R. Kobayashi, J. Normand, 
 K. Raghavachari, A. Rendell, J. C. Burant, S. S. Iyengar, J. Tomasi, 
 M. Cossi, N. Rega, J. M. Millam, M. Klene, J. E. Knox, J. B. Cross, 
 V. Bakken, C. Adamo, J. Jaramillo, R. Gomperts, R. E. Stratmann, 
 O. Yazyev, A. J. Austin, R. Cammi, C. Pomelli, J. W. Ochterski, 
 R. L. Martin, K. Morokuma, V. G. Zakrzewski, G. A. Voth, 
 P. Salvador, J. J. Dannenberg, S. Dapprich, A. D. Daniels, 
 O. Farkas, J. B. Foresman, J. V. Ortiz, J. Cioslowski, 
 and D. J. Fox, Gaussian, Inc., Wallingford CT, 2013.
 
 ******************************************
 Gaussian 09:  AM64L-G09RevD.01 24-Apr-2013
                19-Feb-2025 
 ******************************************
 %chk=h2o_dimer.chk
 --------------------------------------
 # opt freq hf/sto-3g geom=connectivity
 --------------------------------------
 1/18=20,19=15,38=1,57=2/1,3;
 2/9=110,12=2,17=6,18=5,40=1/2;
 3/6=3,11=9,16=1,25=1,30=1,71=1/1,2,3;
 4//1;
 5/5=2,38=5/2;
 6/7=2,8=2,9=2,10=2,28=1/1;
 7//1,2,3,16;
 1/18=20,19=15/3(2);
 2/9=110/2;
 99//99;
 2/9=110/2;
 3/6=3,11=9,16=1,25=1,30=1,71=1/1,2,3;
 4/5=5,16=3,69=1/1;
 5/5=2,38=5/2;
 7//1,2,3,16;
 1/18=20,19=15/3(-5);
 2/9=110/2;
 6/7=2,8=2,9=2,10=2,19=2,28=1/1;
 99/9=1/99;
 -------------------
 Title Card Required
 -------------------
 Symbolic Z-matrix:
 Charge =  0 Multiplicity = 1
 O                    -1.27576   0.09465  -0.06403 
 H                    -1.68046   0.12972   0.83629 
 H                    -1.70887  -0.71194  -0.4309 
 O                     1.43137  -0.10502   0.06657 
 H                     1.69812   0.69748  -0.44479 
 H                     0.44629  -0.03236   0.01905 
 
 Add virtual bond connecting atoms H6         and O1         Dist= 3.27D+00.

 GradGradGradGradGradGradGradGradGradGradGradGradGradGradGradGradGradGrad
 Berny optimization.
 Initialization pass.
                           ----------------------------
                           !    Initial Parameters    !
                           ! (Angstroms and Degrees)  !
 --------------------------                            --------------------------
 ! Name  Definition              Value          Derivative Info.                !
 --------------------------------------------------------------------------------
 ! R1    R(1,2)                  0.9877         estimate D2E/DX2                !
 ! R2    R(1,3)                  0.9863         estimate D2E/DX2                !
 ! R3    R(1,6)                  1.7287         estimate D2E/DX2                !
 ! R4    R(4,5)                  0.9883         estimate D2E/DX2                !
 ! R5    R(4,6)                  0.9889         estimate D2E/DX2                !
 ! A1    A(2,1,3)              100.8456         estimate D2E/DX2                !
 ! A2    A(2,1,6)              111.5283         estimate D2E/DX2                !
 ! A3    A(3,1,6)              113.2802         estimate D2E/DX2                !
 ! A4    A(5,4,6)              100.6233         estimate D2E/DX2                !
 ! A5    L(1,6,4,5,-1)         180.0            estimate D2E/DX2                !
 ! A6    L(1,6,4,5,-2)         179.9999         estimate D2E/DX2                !
 ! D1    D(2,1,3,6)           -119.2869         estimate D2E/DX2                !
 ! D2    D(2,1,4,5)           -122.0937         estimate D2E/DX2                !
 ! D3    D(3,1,4,5)            124.956          estimate D2E/DX2                !
 --------------------------------------------------------------------------------
 Trust Radius=3.00D-01 FncErr=1.00D-07 GrdErr=1.00D-07
 Number of steps in this run=     24 maximum allowed number of steps=    100.
 GradGradGradGradGradGradGradGradGradGradGradGradGradGradGradGradGradGrad

                          Input orientation:                          
 ---------------------------------------------------------------------
 Center     Atomic      Atomic             Coordinates (Angstroms)
 Number     Number       Type             X           Y           Z
 ---------------------------------------------------------------------
      1          8           0       -1.275755    0.094654   -0.064028
      2          1           0       -1.680461    0.129724    0.836286
      3          1           0       -1.708873   -0.711942   -0.430904
      4          8           0        1.431371   -0.105017    0.066573
      5          1           0        1.698124    0.697482   -0.444791
      6          1           0        0.446285   -0.032360    0.019049
 ---------------------------------------------------------------------
                    Distance matrix (angstroms):
                    1          2          3          4          5
     1  O    0.000000
     2  H    0.987716   0.000000
     3  H    0.986299   1.521506   0.000000
     4  O    2.717620   3.214197   3.236815   0.000000
     5  H    3.058159   3.657642   3.687045   0.988259   0.000000
     6  H    1.728715   2.284118   2.304126   0.988904   1.521485
                    6
     6  H    0.000000
 Stoichiometry    H4O2
 Framework group  C1[X(H4O2)]
 Deg. of freedom    12
 Full point group                 C1      NOp   1
 Largest Abelian subgroup         C1      NOp   1
 Largest concise Abelian subgroup C1      NOp   1
                         Standard orientation:                         
 ---------------------------------------------------------------------
 Center     Atomic      Atomic             Coordinates (Angstroms)
 Number     Number       Type             X           Y           Z
 ---------------------------------------------------------------------
      1          8           0        1.275755   -0.094654   -0.064028
      2          1           0        1.680461   -0.129724    0.836286
      3          1           0        1.708873    0.711942   -0.430904
      4          8           0       -1.431371    0.105017    0.066573
      5          1           0       -1.698124   -0.697482   -0.444791
      6          1           0       -0.446285    0.032360    0.019049
 ---------------------------------------------------------------------
 Rotational constants (GHZ):    204.8005242      7.3326149      7.3181801
 Standard basis: STO-3G (5D, 7F)
 There are    14 symmetry adapted cartesian basis functions of A   symmetry.
 There are    14 symmetry adapted basis functions of A   symmetry.
    14 basis functions,    42 primitive gaussians,    14 cartesian basis functions
    10 alpha electrons       10 beta electrons
       nuclear repulsion energy        37.5083827555 Hartrees.
 NAtoms=    6 NActive=    6 NUniq=    6 SFac= 1.00D+00 NAtFMM=   60 NAOKFM=F Big=F
 Integral buffers will be    131072 words long.
 Raffenetti 1 integral format.
 Two-electron integral symmetry is turned on.
 One-electron integrals computed using PRISM.
 NBasis=    14 RedAO= T EigKep=  3.50D-01  NBF=    14
 NBsUse=    14 1.00D-06 EigRej= -1.00D+00 NBFU=    14
 ExpMin= 1.69D-01 ExpMax= 1.31D+02 ExpMxC= 1.31D+02 IAcc=1 IRadAn=         1 AccDes= 0.00D+00
 Harris functional with IExCor=  205 and IRadAn=       1 diagonalized for initial guess.
 HarFok:  IExCor=  205 AccDes= 0.00D+00 IRadAn=         1 IDoV= 1 UseB2=F ITyADJ=14
 ICtDFT=  3500011 ScaDFX=  1.000000  1.000000  1.000000  1.000000
 FoFCou: FMM=F IPFlag=           0 FMFlag=      100000 FMFlg1=           0
         NFxFlg=           0 DoJE=T BraDBF=F KetDBF=T FulRan=T
         wScrn=  0.000000 ICntrl=     500 IOpCl=  0 I1Cent=   200000004 NGrid=           0
         NMat0=    1 NMatS0=      1 NMatT0=    0 NMatD0=    1 NMtDS0=    0 NMtDT0=    0
 Petite list used in FoFCou.
 Keep R1 ints in memory in canonical form, NReq=831278.
 Requested convergence on RMS density matrix=1.00D-08 within 128 cycles.
 Requested convergence on MAX density matrix=1.00D-06.
 Requested convergence on             energy=1.00D-06.
 No special actions if energy rises.
 SCF Done:  E(RHF) =  -149.941201838     A.U. after   10 cycles
            NFock= 10  Conv=0.56D-08     -V/T= 2.0056

 **********************************************************************

            Population analysis using the SCF density.

 **********************************************************************

 Orbital symmetries:
       Occupied  (A) (A) (A) (A) (A) (A) (A) (A) (A) (A)
       Virtual   (A) (A) (A) (A)
 The electronic state is 1-A.
 Alpha  occ. eigenvalues --  -20.29600 -20.18254  -1.29835  -1.21069  -0.63257
 Alpha  occ. eigenvalues --   -0.57793  -0.49417  -0.44184  -0.38706  -0.34466
 Alpha virt. eigenvalues --    0.54091   0.65720   0.66262   0.78859
          Condensed to atoms (all electrons):
               1          2          3          4          5          6
     1  O    7.804501   0.258216   0.258393  -0.004725   0.000412   0.016170
     2  H    0.258216   0.597857  -0.043822   0.000282  -0.000012  -0.002304
     3  H    0.258393  -0.043822   0.596769   0.000286  -0.000013  -0.002164
     4  O   -0.004725   0.000282   0.000286   7.882911   0.252102   0.254841
     5  H    0.000412  -0.000012  -0.000013   0.252102   0.652182  -0.044537
     6  H    0.016170  -0.002304  -0.002164   0.254841  -0.044537   0.579530
 Mulliken charges:
               1
     1  O   -0.332967
     2  H    0.189783
     3  H    0.190550
     4  O   -0.385697
     5  H    0.139866
     6  H    0.198464
 Sum of Mulliken charges =   0.00000
 Mulliken charges with hydrogens summed into heavy atoms:
               1
     1  O    0.047367
     4  O   -0.047367
 Electronic spatial extent (au):  <R**2>=            168.4068
 Charge=              0.0000 electrons
 Dipole moment (field-independent basis, Debye):
    X=              2.9297    Y=             -0.0113    Z=              0.0470  Tot=              2.9301
 Quadrupole moment (field-independent basis, Debye-Ang):
   XX=            -10.3642   YY=            -10.7447   ZZ=            -10.5831
   XY=              3.7314   XZ=              2.4317   YZ=             -0.2149
 Traceless Quadrupole moment (field-independent basis, Debye-Ang):
   XX=              0.1998   YY=             -0.1807   ZZ=             -0.0191
   XY=              3.7314   XZ=              2.4317   YZ=             -0.2149
 Octapole moment (field-independent basis, Debye-Ang**2):
  XXX=             10.9890  YYY=              0.2111  ZZZ=              0.5248  XYY=              0.3746
  XXY=              0.0162  XXZ=              0.0394  XZZ=              1.8490  YZZ=             -0.0325
  YYZ=             -0.3646  XYZ=             -1.6717
 Hexadecapole moment (field-independent basis, Debye-Ang**3):
 XXXX=           -129.3859 YYYY=             -9.9338 ZZZZ=             -9.7882 XXXY=              9.8065
 XXXZ=              6.1919 YYYX=              1.0998 YYYZ=             -0.0065 ZZZX=              1.0473
 ZZZY=             -0.0684 XXYY=            -22.4889 XXZZ=            -22.0689 YYZZ=             -3.2709
 XXYZ=             -0.6193 YYXZ=             -0.1268 ZZXY=              0.2481
 N-N= 3.750838275554D+01 E-N=-4.322757732604D+02  KE= 1.491082030467D+02
 Calling FoFJK, ICntrl=      2127 FMM=F ISym2X=0 I1Cent= 0 IOpClX= 0 NMat=1 NMatS=1 NMatT=0.
 ***** Axes restored to original set *****
 -------------------------------------------------------------------
 Center     Atomic                   Forces (Hartrees/Bohr)
 Number     Number              X              Y              Z
 -------------------------------------------------------------------
      1        8          -0.001907465    0.000841190    0.001497810
      2        1           0.000660195    0.000270763   -0.000761464
      3        1           0.000175315   -0.000802067   -0.000705853
      4        8           0.001773212   -0.000221397    0.000271967
      5        1          -0.000604790   -0.000248212    0.000123519
      6        1          -0.000096466    0.000159723   -0.000425979
 -------------------------------------------------------------------
 Cartesian Forces:  Max     0.001907465 RMS     0.000842513

 GradGradGradGradGradGradGradGradGradGradGradGradGradGradGradGradGradGrad
 Berny optimization.
 FormGI is forming the generalized inverse of G from B-inverse, IUseBI=4.
 Internal  Forces:  Max     0.001217419 RMS     0.000676308
 Search for a local minimum.
 Step number   1 out of a maximum of   24
 All quantities printed in internal units (Hartrees-Bohrs-Radians)
 Mixed Optimization -- En-DIIS/RFO-DIIS
 Second derivative matrix not updated -- first step.
 The second derivative matrix:
                          R1        R2        R3        R4        R5
           R1           0.49915
           R2           0.00000   0.50181
           R3           0.00000   0.00000   0.07002
           R4           0.00000   0.00000   0.00000   0.49814
           R5           0.00000   0.00000   0.00000   0.00000   0.49694
           A1           0.00000   0.00000   0.00000   0.00000   0.00000
           A2           0.00000   0.00000   0.00000   0.00000   0.00000
           A3           0.00000   0.00000   0.00000   0.00000   0.00000
           A4           0.00000   0.00000   0.00000   0.00000   0.00000
           A5           0.00000   0.00000   0.00000   0.00000   0.00000
           A6           0.00000   0.00000   0.00000   0.00000   0.00000
           D1           0.00000   0.00000   0.00000   0.00000   0.00000
           D2           0.00000   0.00000   0.00000   0.00000   0.00000
           D3           0.00000   0.00000   0.00000   0.00000   0.00000
                          A1        A2        A3        A4        A5
           A1           0.16000
           A2           0.00000   0.16000
           A3           0.00000   0.00000   0.16000
           A4           0.00000   0.00000   0.00000   0.16000
           A5           0.00000   0.00000   0.00000   0.00000   0.01175
           A6           0.00000   0.00000   0.00000   0.00000   0.00000
           D1           0.00000   0.00000   0.00000   0.00000   0.00000
           D2           0.00000   0.00000   0.00000   0.00000   0.00000
           D3           0.00000   0.00000   0.00000   0.00000   0.00000
                          A6        D1        D2        D3
           A6           0.01175
           D1           0.00000   0.01210
           D2           0.00000   0.00000   0.00230
           D3           0.00000   0.00000   0.00000   0.00230
 ITU=  0
     Eigenvalues ---    0.00230   0.01144   0.01175   0.04800   0.07002
     Eigenvalues ---    0.13003   0.16000   0.16000   0.49694   0.49814
     Eigenvalues ---    0.49915   0.50181
 RFO step:  Lambda=-3.72244267D-05 EMin= 2.30000000D-03
 Linear search not attempted -- first point.
 Iteration  1 RMS(Cart)=  0.00544339 RMS(Int)=  0.00003288
 Iteration  2 RMS(Cart)=  0.00002126 RMS(Int)=  0.00000360
 Iteration  3 RMS(Cart)=  0.00000000 RMS(Int)=  0.00000360
 Variable       Old X    -DE/DX   Delta X   Delta X   Delta X     New X
                                 (Linear)    (Quad)   (Total)
    R1        1.86651  -0.00095   0.00000  -0.00191  -0.00191   1.86460
    R2        1.86384   0.00084   0.00000   0.00168   0.00168   1.86551
    R3        3.26680   0.00109   0.00000   0.01555   0.01555   3.28234
    R4        1.86754  -0.00043   0.00000  -0.00086  -0.00086   1.86668
    R5        1.86876   0.00122   0.00000   0.00245   0.00245   1.87121
    A1        1.76009   0.00063   0.00000   0.00457   0.00457   1.76466
    A2        1.94654  -0.00010   0.00000  -0.00080  -0.00080   1.94574
    A3        1.97711  -0.00076   0.00000  -0.00451  -0.00451   1.97260
    A4        1.75621  -0.00095   0.00000  -0.00593  -0.00593   1.75028
    A5        3.14159   0.00002   0.00000  -0.00055  -0.00055   3.14104
    A6        3.14159  -0.00010   0.00000  -0.00812  -0.00812   3.13347
    D1       -2.08195   0.00009   0.00000   0.00028   0.00029  -2.08166
    D2       -2.13094   0.00010   0.00000  -0.01001  -0.01000  -2.14094
    D3        2.18089  -0.00015   0.00000  -0.01252  -0.01252   2.16837
         Item               Value     Threshold  Converged?
 Maximum Force            0.001217     0.000450     NO 
 RMS     Force            0.000676     0.000300     NO 
 Maximum Displacement     0.009817     0.001800     NO 
 RMS     Displacement     0.005443     0.001200     NO 
 Predicted change in Energy=-1.862711D-05
 GradGradGradGradGradGradGradGradGradGradGradGradGradGradGradGradGradGrad

                          Input orientation:                          
 ---------------------------------------------------------------------
 Center     Atomic      Atomic             Coordinates (Angstroms)
 Number     Number       Type             X           Y           Z
 ---------------------------------------------------------------------
      1          8           0       -1.280059    0.095772   -0.062448
      2          1           0       -1.682912    0.128679    0.837668
      3          1           0       -1.710211   -0.711389   -0.433930
      4          8           0        1.436566   -0.103393    0.070003
      5          1           0        1.697146    0.696018   -0.448452
      6          1           0        0.450160   -0.033146    0.019343
 ---------------------------------------------------------------------
                    Distance matrix (angstroms):
                    1          2          3          4          5
     1  O    0.000000
     2  H    0.986703   0.000000
     3  H    0.987187   1.524277   0.000000
     4  O    2.727134   3.220918   3.244351   0.000000
     5  H    3.061542   3.660706   3.686609   0.987803   0.000000
     6  H    1.736942   2.290380   2.309258   0.990201   1.518383
                    6
     6  H    0.000000
 Stoichiometry    H4O2
 Framework group  C1[X(H4O2)]
 Deg. of freedom    12
 Full point group                 C1      NOp   1
 Largest Abelian subgroup         C1      NOp   1
 Largest concise Abelian subgroup C1      NOp   1
                         Standard orientation:                         
 ---------------------------------------------------------------------
 Center     Atomic      Atomic             Coordinates (Angstroms)
 Number     Number       Type             X           Y           Z
 ---------------------------------------------------------------------
      1          8           0        1.280418   -0.110244   -0.028900
      2          1           0        1.682695    0.153254    0.832683
      3          1           0        1.710753    0.531081   -0.643759
      4          8           0       -1.436305    0.120541    0.029513
      5          1           0       -1.696495   -0.804568   -0.199026
      6          1           0       -0.449862    0.037859    0.005200
 ---------------------------------------------------------------------
 Rotational constants (GHZ):    204.3351262      7.2868502      7.2729894
 Standard basis: STO-3G (5D, 7F)
 There are    14 symmetry adapted cartesian basis functions of A   symmetry.
 There are    14 symmetry adapted basis functions of A   symmetry.
    14 basis functions,    42 primitive gaussians,    14 cartesian basis functions
    10 alpha electrons       10 beta electrons
       nuclear repulsion energy        37.4417313115 Hartrees.
 NAtoms=    6 NActive=    6 NUniq=    6 SFac= 1.00D+00 NAtFMM=   60 NAOKFM=F Big=F
 Integral buffers will be    131072 words long.
 Raffenetti 1 integral format.
 Two-electron integral symmetry is turned on.
 One-electron integrals computed using PRISM.
 NBasis=    14 RedAO= T EigKep=  3.51D-01  NBF=    14
 NBsUse=    14 1.00D-06 EigRej= -1.00D+00 NBFU=    14
 Initial guess from the checkpoint file:  "h2o_dimer.chk"
 B after Tr=     0.000000    0.000000    0.000000
         Rot=    0.986208    0.165513    0.000086   -0.000216 Ang=  19.05 deg.
 Keep R1 ints in memory in canonical form, NReq=831278.
 Requested convergence on RMS density matrix=1.00D-08 within 128 cycles.
 Requested convergence on MAX density matrix=1.00D-06.
 Requested convergence on             energy=1.00D-06.
 No special actions if energy rises.
 SCF Done:  E(RHF) =  -149.941222336     A.U. after    9 cycles
            NFock=  9  Conv=0.24D-08     -V/T= 2.0056
 Calling FoFJK, ICntrl=      2127 FMM=F ISym2X=0 I1Cent= 0 IOpClX= 0 NMat=1 NMatS=1 NMatT=0.
 ***** Axes restored to original set *****
 -------------------------------------------------------------------
 Center     Atomic                   Forces (Hartrees/Bohr)
 Number     Number              X              Y              Z
 -------------------------------------------------------------------
      1        8          -0.000715337    0.000344555   -0.000583089
      2        1          -0.000206380   -0.000296577    0.000159383
      3        1           0.000309232    0.000181787    0.000424029
      4        8          -0.000846739    0.000038792    0.000004765
      5        1           0.000432915    0.000286928   -0.000203283
      6        1           0.001026309   -0.000555485    0.000198195
 -------------------------------------------------------------------
 Cartesian Forces:  Max     0.001026309 RMS     0.000463415

 GradGradGradGradGradGradGradGradGradGradGradGradGradGradGradGradGradGrad
 Berny optimization.
 Using GEDIIS/GDIIS optimizer.
 FormGI is forming the generalized inverse of G from B-inverse, IUseBI=4.
 Internal  Forces:  Max     0.000627148 RMS     0.000360174
 Search for a local minimum.
 Step number   2 out of a maximum of   24
 All quantities printed in internal units (Hartrees-Bohrs-Radians)
 Mixed Optimization -- En-DIIS/RFO-DIIS
 Swapping is turned off.
 Update second derivatives using D2CorX and points    1    2
 DE= -2.05D-05 DEPred=-1.86D-05 R= 1.10D+00
 TightC=F SS=  1.41D+00  RLast= 2.56D-02 DXNew= 5.0454D-01 7.6777D-02
 Trust test= 1.10D+00 RLast= 2.56D-02 DXMaxT set to 3.00D-01
 The second derivative matrix:
                          R1        R2        R3        R4        R5
           R1           0.51598
           R2          -0.02360   0.53219
           R3           0.01169  -0.00685   0.04456
           R4           0.02003  -0.02423   0.00034   0.51649
           R5          -0.02727   0.03645  -0.01261  -0.02990   0.53994
           A1          -0.01335   0.01857  -0.00876  -0.01568   0.02153
           A2           0.00656  -0.00786  -0.00014   0.00591  -0.00974
           A3          -0.00597   0.00260   0.01618   0.00111   0.00584
           A4           0.03037  -0.03838   0.00624   0.03015  -0.04643
           A5          -0.00432   0.00469   0.00182  -0.00319   0.00609
           A6           0.00047  -0.00103   0.00165   0.00109  -0.00101
           D1           0.00198  -0.00214  -0.00084   0.00146  -0.00278
           D2          -0.01272   0.01379   0.00544  -0.00937   0.01793
           D3           0.01221  -0.01350  -0.00425   0.00939  -0.01738
                          A1        A2        A3        A4        A5
           A1           0.17058
           A2          -0.00513   0.16190
           A3           0.00443   0.00051   0.14982
           A4          -0.02387   0.00976  -0.00178   0.20825
           A5           0.00335  -0.00101  -0.00139  -0.00566   0.01217
           A6          -0.00039   0.00037  -0.00097   0.00143  -0.00031
           D1          -0.00153   0.00046   0.00064   0.00258  -0.00019
           D2           0.00988  -0.00296  -0.00413  -0.01665   0.00122
           D3          -0.00949   0.00298   0.00337   0.01640  -0.00131
                          A6        D1        D2        D3
           A6           0.01171
           D1           0.00014   0.01218
           D2          -0.00091  -0.00055   0.00585
           D3           0.00084   0.00059  -0.00382   0.00633
 ITU=  1  0
     Eigenvalues ---    0.00224   0.01138   0.01159   0.03757   0.05320
     Eigenvalues ---    0.13484   0.15174   0.20440   0.49577   0.49819
     Eigenvalues ---    0.50067   0.63110
 En-DIIS/RFO-DIIS IScMMF=        0 using points:     2    1
 RFO step:  Lambda=-4.66488741D-06.
 DidBck=F Rises=F RFO-DIIS coefs:    1.11505   -0.11505
 Iteration  1 RMS(Cart)=  0.00627688 RMS(Int)=  0.00002650
 Iteration  2 RMS(Cart)=  0.00002097 RMS(Int)=  0.00000733
 Iteration  3 RMS(Cart)=  0.00000000 RMS(Int)=  0.00000733
 Variable       Old X    -DE/DX   Delta X   Delta X   Delta X     New X
                                 (Linear)    (Quad)   (Total)
    R1        1.86460   0.00022  -0.00022  -0.00018  -0.00040   1.86420
    R2        1.86551  -0.00044   0.00019  -0.00040  -0.00021   1.86531
    R3        3.28234   0.00063   0.00179   0.01542   0.01720   3.29955
    R4        1.86668   0.00045  -0.00010   0.00071   0.00061   1.86729
    R5        1.87121  -0.00045   0.00028  -0.00014   0.00014   1.87135
    A1        1.76466  -0.00028   0.00053  -0.00268  -0.00217   1.76249
    A2        1.94574   0.00018  -0.00009  -0.00077  -0.00088   1.94486
    A3        1.97260  -0.00040  -0.00052  -0.00560  -0.00612   1.96648
    A4        1.75028   0.00061  -0.00068   0.00216   0.00147   1.75175
    A5        3.14104  -0.00009  -0.00006  -0.00385  -0.00391   3.13713
    A6        3.13347  -0.00001  -0.00093  -0.00431  -0.00524   3.12823
    D1       -2.08166   0.00014   0.00003   0.00510   0.00513  -2.07654
    D2       -2.14094  -0.00024  -0.00115  -0.01416  -0.01530  -2.15624
    D3        2.16837   0.00022  -0.00144  -0.00786  -0.00931   2.15906
         Item               Value     Threshold  Converged?
 Maximum Force            0.000627     0.000450     NO 
 RMS     Force            0.000360     0.000300     NO 
 Maximum Displacement     0.009660     0.001800     NO 
 RMS     Displacement     0.006273     0.001200     NO 
 Predicted change in Energy=-8.852084D-06
 GradGradGradGradGradGradGradGradGradGradGradGradGradGradGradGradGradGrad

                          Input orientation:                          
 ---------------------------------------------------------------------
 Center     Atomic      Atomic             Coordinates (Angstroms)
 Number     Number       Type             X           Y           Z
 ---------------------------------------------------------------------
      1          8           0       -1.285170    0.098442   -0.061805
      2          1           0       -1.687860    0.124970    0.838365
      3          1           0       -1.711080   -0.710231   -0.434594
      4          8           0        1.440539   -0.100965    0.072449
      5          1           0        1.700389    0.694441   -0.453103
      6          1           0        0.453872   -0.034116    0.020872
 ---------------------------------------------------------------------
                    Distance matrix (angstroms):
                    1          2          3          4          5
     1  O    0.000000
     2  H    0.986493   0.000000
     3  H    0.987078   1.522670   0.000000
     4  O    2.736290   3.228708   3.249769   0.000000
     5  H    3.069511   3.670480   3.689386   0.988128   0.000000
     6  H    1.746046   2.297960   2.313352   0.990274   1.519622
                    6
     6  H    0.000000
 Stoichiometry    H4O2
 Framework group  C1[X(H4O2)]
 Deg. of freedom    12
 Full point group                 C1      NOp   1
 Largest Abelian subgroup         C1      NOp   1
 Largest concise Abelian subgroup C1      NOp   1
                         Standard orientation:                         
 ---------------------------------------------------------------------
 Center     Atomic      Atomic             Coordinates (Angstroms)
 Number     Number       Type             X           Y           Z
 ---------------------------------------------------------------------
      1          8           0        1.285164   -0.105972    0.043595
      2          1           0        1.686947    0.625081    0.570188
      3          1           0        1.711321    0.038843   -0.834893
      4          8           0       -1.440712    0.114437   -0.047509
      5          1           0       -1.699902   -0.766819    0.316640
      6          1           0       -0.453982    0.035173   -0.020618
 ---------------------------------------------------------------------
 Rotational constants (GHZ):    204.0230930      7.2422501      7.2275848
 Standard basis: STO-3G (5D, 7F)
 There are    14 symmetry adapted cartesian basis functions of A   symmetry.
 There are    14 symmetry adapted basis functions of A   symmetry.
    14 basis functions,    42 primitive gaussians,    14 cartesian basis functions
    10 alpha electrons       10 beta electrons
       nuclear repulsion energy        37.3766173590 Hartrees.
 NAtoms=    6 NActive=    6 NUniq=    6 SFac= 1.00D+00 NAtFMM=   60 NAOKFM=F Big=F
 Integral buffers will be    131072 words long.
 Raffenetti 1 integral format.
 Two-electron integral symmetry is turned on.
 One-electron integrals computed using PRISM.
 NBasis=    14 RedAO= T EigKep=  3.52D-01  NBF=    14
 NBsUse=    14 1.00D-06 EigRej= -1.00D+00 NBFU=    14
 Initial guess from the checkpoint file:  "h2o_dimer.chk"
 B after Tr=     0.000000    0.000000    0.000000
         Rot=    0.948908    0.315552   -0.000079   -0.000103 Ang=  36.79 deg.
 Keep R1 ints in memory in canonical form, NReq=831278.
 Requested convergence on RMS density matrix=1.00D-08 within 128 cycles.
 Requested convergence on MAX density matrix=1.00D-06.
 Requested convergence on             energy=1.00D-06.
 No special actions if energy rises.
 SCF Done:  E(RHF) =  -149.941234139     A.U. after    9 cycles
            NFock=  9  Conv=0.20D-08     -V/T= 2.0056
 Calling FoFJK, ICntrl=      2127 FMM=F ISym2X=0 I1Cent= 0 IOpClX= 0 NMat=1 NMatS=1 NMatT=0.
 ***** Axes restored to original set *****
 -------------------------------------------------------------------
 Center     Atomic                   Forces (Hartrees/Bohr)
 Number     Number              X              Y              Z
 -------------------------------------------------------------------
      1        8          -0.000241848    0.000135642   -0.000661563
      2        1          -0.000208842   -0.000044260    0.000559816
      3        1           0.000268868    0.000030317    0.000094265
      4        8          -0.000843588    0.000049743   -0.000083559
      5        1           0.000031130   -0.000008300    0.000002855
      6        1           0.000994280   -0.000163142    0.000088186
 -------------------------------------------------------------------
 Cartesian Forces:  Max     0.000994280 RMS     0.000387352

 GradGradGradGradGradGradGradGradGradGradGradGradGradGradGradGradGradGrad
 Berny optimization.
 Using GEDIIS/GDIIS optimizer.
 FormGI is forming the generalized inverse of G from B-inverse, IUseBI=4.
 Internal  Forces:  Max     0.000816304 RMS     0.000299827
 Search for a local minimum.
 Step number   3 out of a maximum of   24
 All quantities printed in internal units (Hartrees-Bohrs-Radians)
 Mixed Optimization -- En-DIIS/RFO-DIIS
 Swapping is turned off.
 Update second derivatives using D2CorX and points    1    2    3
 DE= -1.18D-05 DEPred=-8.85D-06 R= 1.33D+00
 TightC=F SS=  1.41D+00  RLast= 2.70D-02 DXNew= 5.0454D-01 8.1146D-02
 Trust test= 1.33D+00 RLast= 2.70D-02 DXMaxT set to 3.00D-01
 The second derivative matrix:
                          R1        R2        R3        R4        R5
           R1           0.55747
           R2          -0.02824   0.53210
           R3          -0.01480   0.00048   0.03904
           R4           0.00772  -0.02175   0.00122   0.51823
           R5          -0.07736   0.04134   0.02323  -0.01389   0.59974
           A1          -0.01228   0.01586   0.00472  -0.01177   0.01783
           A2          -0.00007  -0.00836   0.00984   0.00979  -0.00276
           A3          -0.00653  -0.00182   0.03877   0.00834   0.00266
           A4           0.02260  -0.03655   0.00436   0.03071  -0.03593
           A5           0.00128   0.00418  -0.00206  -0.00501  -0.00061
           A6           0.00526  -0.00173  -0.00050  -0.00006  -0.00694
           D1           0.00075  -0.00178  -0.00131   0.00145  -0.00110
           D2          -0.00657   0.01393  -0.00210  -0.01245   0.01115
           D3           0.00760  -0.01402   0.00335   0.01233  -0.01265
                          A1        A2        A3        A4        A5
           A1           0.16178
           A2          -0.00901   0.16154
           A3          -0.00973  -0.00503   0.12786
           A4          -0.02001   0.01294   0.00533   0.20820
           A5           0.00373  -0.00186  -0.00120  -0.00690   0.01294
           A6          -0.00084  -0.00064  -0.00194   0.00079   0.00035
           D1          -0.00079   0.00098   0.00190   0.00246  -0.00038
           D2           0.01241  -0.00308  -0.00070  -0.01910   0.00203
           D3          -0.01263   0.00258  -0.00111   0.01887  -0.00189
                          A6        D1        D2        D3
           A6           0.01223
           D1           0.00005   0.01215
           D2          -0.00005  -0.00094   0.00624
           D3           0.00011   0.00100  -0.00381   0.00594
 ITU=  1  1  0
     Eigenvalues ---    0.00219   0.01144   0.01229   0.02178   0.05469
     Eigenvalues ---    0.13379   0.14826   0.21112   0.49808   0.49981
     Eigenvalues ---    0.53523   0.69013
 En-DIIS/RFO-DIIS IScMMF=        0 using points:     3    2    1
 RFO step:  Lambda=-2.40478705D-06.
 DidBck=F Rises=F RFO-DIIS coefs:    1.47785   -0.39682   -0.08104
 Iteration  1 RMS(Cart)=  0.00551055 RMS(Int)=  0.00002568
 Iteration  2 RMS(Cart)=  0.00002076 RMS(Int)=  0.00001137
 Iteration  3 RMS(Cart)=  0.00000000 RMS(Int)=  0.00001137
 Variable       Old X    -DE/DX   Delta X   Delta X   Delta X     New X
                                 (Linear)    (Quad)   (Total)
    R1        1.86420   0.00059  -0.00034   0.00133   0.00098   1.86518
    R2        1.86531  -0.00018   0.00004  -0.00011  -0.00008   1.86523
    R3        3.29955   0.00019   0.00948   0.00476   0.01424   3.31379
    R4        1.86729   0.00000   0.00022  -0.00027  -0.00004   1.86725
    R5        1.87135  -0.00082   0.00026  -0.00181  -0.00155   1.86980
    A1        1.76249   0.00004  -0.00067   0.00038  -0.00031   1.76218
    A2        1.94486   0.00003  -0.00049  -0.00096  -0.00146   1.94339
    A3        1.96648  -0.00037  -0.00329  -0.00409  -0.00739   1.95909
    A4        1.75175   0.00006   0.00022  -0.00092  -0.00069   1.75106
    A5        3.13713   0.00002  -0.00191   0.00543   0.00352   3.14066
    A6        3.12823   0.00005  -0.00316   0.00462   0.00145   3.12968
    D1       -2.07654   0.00011   0.00247   0.00275   0.00521  -2.07132
    D2       -2.15624  -0.00008  -0.00812  -0.00399  -0.01210  -2.16834
    D3        2.15906   0.00008  -0.00546  -0.00011  -0.00559   2.15347
         Item               Value     Threshold  Converged?
 Maximum Force            0.000816     0.000450     NO 
 RMS     Force            0.000300     0.000300     YES
 Maximum Displacement     0.009665     0.001800     NO 
 RMS     Displacement     0.005505     0.001200     NO 
 Predicted change in Energy=-4.387379D-06
 GradGradGradGradGradGradGradGradGradGradGradGradGradGradGradGradGradGrad

                          Input orientation:                          
 ---------------------------------------------------------------------
 Center     Atomic      Atomic             Coordinates (Angstroms)
 Number     Number       Type             X           Y           Z
 ---------------------------------------------------------------------
      1          8           0       -1.290285    0.101217   -0.061312
      2          1           0       -1.692058    0.121646    0.839994
      3          1           0       -1.709194   -0.710526   -0.435254
      4          8           0        1.441982   -0.100476    0.073556
      5          1           0        1.703881    0.691561   -0.456011
      6          1           0        0.456366   -0.030880    0.021212
 ---------------------------------------------------------------------
                    Distance matrix (angstroms):
                    1          2          3          4          5
     1  O    0.000000
     2  H    0.987012   0.000000
     3  H    0.987038   1.522846   0.000000
     4  O    2.743019   3.234034   3.249762   0.000000
     5  H    3.077226   3.679244   3.689900   0.988107   0.000000
     6  H    1.753582   2.304212   2.315152   0.989456   1.518538
                    6
     6  H    0.000000
 Stoichiometry    H4O2
 Framework group  C1[X(H4O2)]
 Deg. of freedom    12
 Full point group                 C1      NOp   1
 Largest Abelian subgroup         C1      NOp   1
 Largest concise Abelian subgroup C1      NOp   1
                         Standard orientation:                         
 ---------------------------------------------------------------------
 Center     Atomic      Atomic             Coordinates (Angstroms)
 Number     Number       Type             X           Y           Z
 ---------------------------------------------------------------------
      1          8           0        1.289055   -0.103375    0.051065
      2          1           0        1.689964    0.664798    0.523690
      3          1           0        1.707663   -0.015767   -0.838506
      4          8           0       -1.443506    0.111439   -0.054347
      5          1           0       -1.704238   -0.745904    0.361990
      6          1           0       -0.457783    0.032358   -0.020915
 ---------------------------------------------------------------------
 Rotational constants (GHZ):    203.4971340      7.2106218      7.1953558
 Standard basis: STO-3G (5D, 7F)
 There are    14 symmetry adapted cartesian basis functions of A   symmetry.
 There are    14 symmetry adapted basis functions of A   symmetry.
    14 basis functions,    42 primitive gaussians,    14 cartesian basis functions
    10 alpha electrons       10 beta electrons
       nuclear repulsion energy        37.3308098284 Hartrees.
 NAtoms=    6 NActive=    6 NUniq=    6 SFac= 1.00D+00 NAtFMM=   60 NAOKFM=F Big=F
 Integral buffers will be    131072 words long.
 Raffenetti 1 integral format.
 Two-electron integral symmetry is turned on.
 One-electron integrals computed using PRISM.
 NBasis=    14 RedAO= T EigKep=  3.52D-01  NBF=    14
 NBsUse=    14 1.00D-06 EigRej= -1.00D+00 NBFU=    14
 Initial guess from the checkpoint file:  "h2o_dimer.chk"
 B after Tr=     0.000000    0.000000    0.000000
         Rot=    0.999459    0.032899   -0.000149   -0.000018 Ang=   3.77 deg.
 Keep R1 ints in memory in canonical form, NReq=831278.
 Requested convergence on RMS density matrix=1.00D-08 within 128 cycles.
 Requested convergence on MAX density matrix=1.00D-06.
 Requested convergence on             energy=1.00D-06.
 No special actions if energy rises.
 SCF Done:  E(RHF) =  -149.941238655     A.U. after    8 cycles
            NFock=  8  Conv=0.67D-08     -V/T= 2.0056
 Calling FoFJK, ICntrl=      2127 FMM=F ISym2X=0 I1Cent= 0 IOpClX= 0 NMat=1 NMatS=1 NMatT=0.
 ***** Axes restored to original set *****
 -------------------------------------------------------------------
 Center     Atomic                   Forces (Hartrees/Bohr)
 Number     Number              X              Y              Z
 -------------------------------------------------------------------
      1        8          -0.000022533    0.000206625   -0.000090042
      2        1           0.000025008   -0.000076451   -0.000001670
      3        1           0.000140681   -0.000057211    0.000074516
      4        8          -0.000100968    0.000106485   -0.000137008
      5        1           0.000144701   -0.000012348    0.000015491
      6        1          -0.000186890   -0.000167100    0.000138713
 -------------------------------------------------------------------
 Cartesian Forces:  Max     0.000206625 RMS     0.000113070

 GradGradGradGradGradGradGradGradGradGradGradGradGradGradGradGradGradGrad
 Berny optimization.
 Using GEDIIS/GDIIS optimizer.
 FormGI is forming the generalized inverse of G from B-inverse, IUseBI=4.
 Internal  Forces:  Max     0.000270294 RMS     0.000115762
 Search for a local minimum.
 Step number   4 out of a maximum of   24
 All quantities printed in internal units (Hartrees-Bohrs-Radians)
 Mixed Optimization -- En-DIIS/RFO-DIIS
 Swapping is turned off.
 Update second derivatives using D2CorX and points    1    2    3    4
 DE= -4.52D-06 DEPred=-4.39D-06 R= 1.03D+00
 TightC=F SS=  1.41D+00  RLast= 2.20D-02 DXNew= 5.0454D-01 6.5918D-02
 Trust test= 1.03D+00 RLast= 2.20D-02 DXMaxT set to 3.00D-01
 The second derivative matrix:
                          R1        R2        R3        R4        R5
           R1           0.54246
           R2          -0.01738   0.52851
           R3          -0.00147  -0.00274   0.05063
           R4           0.00350  -0.02217   0.00195   0.52022
           R5          -0.05821   0.02731   0.00394  -0.00868   0.57561
           A1           0.00073   0.01070   0.00457  -0.01077   0.00032
           A2           0.00432  -0.01180   0.01182   0.01212  -0.00925
           A3           0.00439  -0.00822   0.04697   0.01209  -0.01353
           A4           0.00372  -0.03367  -0.00692   0.03258  -0.00971
           A5           0.00105   0.00550  -0.00010  -0.00605  -0.00035
           A6           0.00164  -0.00035  -0.00291  -0.00059  -0.00174
           D1          -0.00001  -0.00169  -0.00206   0.00155  -0.00001
           D2          -0.00663   0.01626   0.00105  -0.01451   0.01120
           D3           0.00685  -0.01610  -0.00044   0.01430  -0.01153
                          A1        A2        A3        A4        A5
           A1           0.15664
           A2          -0.01081   0.16240
           A3          -0.01230  -0.00521   0.11639
           A4          -0.01854   0.01564   0.01218   0.21698
           A5           0.00506  -0.00207  -0.00177  -0.00957   0.01318
           A6          -0.00026  -0.00068  -0.00109   0.00122   0.00011
           D1          -0.00083   0.00123   0.00324   0.00246  -0.00042
           D2           0.01448  -0.00418  -0.00457  -0.02262   0.00242
           D3          -0.01465   0.00359   0.00245   0.02288  -0.00239
                          A6        D1        D2        D3
           A6           0.01235
           D1          -0.00004   0.01206
           D2          -0.00006  -0.00083   0.00668
           D3           0.00023   0.00091  -0.00437   0.00666
 ITU=  1  1  1  0
     Eigenvalues ---    0.00221   0.01171   0.01191   0.01865   0.06148
     Eigenvalues ---    0.13245   0.14766   0.22415   0.49824   0.49999
     Eigenvalues ---    0.54446   0.63529
 En-DIIS/RFO-DIIS IScMMF=        0 using points:     4    3    2    1
 RFO step:  Lambda=-5.25219791D-07.
 DidBck=F Rises=F RFO-DIIS coefs:    0.99466    0.16377   -0.22482    0.06639
 Iteration  1 RMS(Cart)=  0.00181347 RMS(Int)=  0.00000679
 Iteration  2 RMS(Cart)=  0.00000413 RMS(Int)=  0.00000538
 Iteration  3 RMS(Cart)=  0.00000000 RMS(Int)=  0.00000538
 Variable       Old X    -DE/DX   Delta X   Delta X   Delta X     New X
                                 (Linear)    (Quad)   (Total)
    R1        1.86518  -0.00001   0.00006  -0.00005   0.00001   1.86519
    R2        1.86523  -0.00004  -0.00014   0.00018   0.00003   1.86527
    R3        3.31379  -0.00014   0.00162  -0.00023   0.00139   3.31518
    R4        1.86725   0.00002   0.00015  -0.00019  -0.00004   1.86721
    R5        1.86980   0.00003  -0.00013   0.00011  -0.00003   1.86977
    A1        1.76218  -0.00002  -0.00065   0.00009  -0.00056   1.76162
    A2        1.94339   0.00003  -0.00008  -0.00080  -0.00089   1.94251
    A3        1.95909  -0.00026  -0.00063  -0.00277  -0.00341   1.95568
    A4        1.75106   0.00027   0.00063   0.00039   0.00102   1.75208
    A5        3.14066  -0.00003  -0.00060   0.00053  -0.00007   3.14059
    A6        3.12968   0.00006  -0.00030   0.00468   0.00439   3.13407
    D1       -2.07132   0.00010   0.00076   0.00211   0.00286  -2.06846
    D2       -2.16834  -0.00007  -0.00170  -0.00006  -0.00176  -2.17009
    D3        2.15347   0.00008  -0.00061   0.00206   0.00144   2.15491
         Item               Value     Threshold  Converged?
 Maximum Force            0.000270     0.000450     YES
 RMS     Force            0.000116     0.000300     YES
 Maximum Displacement     0.003748     0.001800     NO 
 RMS     Displacement     0.001814     0.001200     NO 
 Predicted change in Energy=-9.183746D-07
 GradGradGradGradGradGradGradGradGradGradGradGradGradGradGradGradGradGrad

                          Input orientation:                          
 ---------------------------------------------------------------------
 Center     Atomic      Atomic             Coordinates (Angstroms)
 Number     Number       Type             X           Y           Z
 ---------------------------------------------------------------------
      1          8           0       -1.291360    0.102513   -0.061345
      2          1           0       -1.692952    0.120895    0.840091
      3          1           0       -1.707211   -0.710952   -0.435005
      4          8           0        1.441547   -0.101052    0.072608
      5          1           0        1.704703    0.690995   -0.456281
      6          1           0        0.455963   -0.029857    0.022116
 ---------------------------------------------------------------------
                    Distance matrix (angstroms):
                    1          2          3          4          5
     1  O    0.000000
     2  H    0.987016   0.000000
     3  H    0.987056   1.522512   0.000000
     4  O    2.743750   3.234714   3.247202   0.000000
     5  H    3.078746   3.680985   3.688775   0.988085   0.000000
     6  H    1.754316   2.304266   2.313476   0.989441   1.519159
                    6
     6  H    0.000000
 Stoichiometry    H4O2
 Framework group  C1[X(H4O2)]
 Deg. of freedom    12
 Full point group                 C1      NOp   1
 Largest Abelian subgroup         C1      NOp   1
 Largest concise Abelian subgroup C1      NOp   1
                         Standard orientation:                         
 ---------------------------------------------------------------------
 Center     Atomic      Atomic             Coordinates (Angstroms)
 Number     Number       Type             X           Y           Z
 ---------------------------------------------------------------------
      1          8           0        1.289632   -0.106502    0.045141
      2          1           0        1.690677    0.633870    0.560130
      3          1           0        1.704621    0.034325   -0.839297
      4          8           0       -1.443631    0.114380   -0.047831
      5          1           0       -1.705383   -0.765354    0.318048
      6          1           0       -0.457920    0.034135   -0.017359
 ---------------------------------------------------------------------
 Rotational constants (GHZ):    203.3217783      7.2079575      7.1924334
 Standard basis: STO-3G (5D, 7F)
 There are    14 symmetry adapted cartesian basis functions of A   symmetry.
 There are    14 symmetry adapted basis functions of A   symmetry.
    14 basis functions,    42 primitive gaussians,    14 cartesian basis functions
    10 alpha electrons       10 beta electrons
       nuclear repulsion energy        37.3267079439 Hartrees.
 NAtoms=    6 NActive=    6 NUniq=    6 SFac= 1.00D+00 NAtFMM=   60 NAOKFM=F Big=F
 Integral buffers will be    131072 words long.
 Raffenetti 1 integral format.
 Two-electron integral symmetry is turned on.
 One-electron integrals computed using PRISM.
 NBasis=    14 RedAO= T EigKep=  3.52D-01  NBF=    14
 NBsUse=    14 1.00D-06 EigRej= -1.00D+00 NBFU=    14
 Initial guess from the checkpoint file:  "h2o_dimer.chk"
 B after Tr=     0.000000    0.000000    0.000000
         Rot=    0.999579   -0.029019   -0.000071    0.000017 Ang=  -3.33 deg.
 Keep R1 ints in memory in canonical form, NReq=831278.
 Requested convergence on RMS density matrix=1.00D-08 within 128 cycles.
 Requested convergence on MAX density matrix=1.00D-06.
 Requested convergence on             energy=1.00D-06.
 No special actions if energy rises.
 SCF Done:  E(RHF) =  -149.941240026     A.U. after    8 cycles
            NFock=  8  Conv=0.17D-08     -V/T= 2.0056
 Calling FoFJK, ICntrl=      2127 FMM=F ISym2X=0 I1Cent= 0 IOpClX= 0 NMat=1 NMatS=1 NMatT=0.
 ***** Axes restored to original set *****
 -------------------------------------------------------------------
 Center     Atomic                   Forces (Hartrees/Bohr)
 Number     Number              X              Y              Z
 -------------------------------------------------------------------
      1        8          -0.000018330    0.000113119   -0.000045637
      2        1           0.000041932   -0.000011956    0.000035983
      3        1           0.000153496   -0.000041580    0.000008300
      4        8           0.000007574   -0.000036702   -0.000013002
      5        1          -0.000012408    0.000006455    0.000000264
      6        1          -0.000172264   -0.000029336    0.000014093
 -------------------------------------------------------------------
 Cartesian Forces:  Max     0.000172264 RMS     0.000065095

 GradGradGradGradGradGradGradGradGradGradGradGradGradGradGradGradGradGrad
 Berny optimization.
 Using GEDIIS/GDIIS optimizer.
 FormGI is forming the generalized inverse of G from B-inverse, IUseBI=4.
 Internal  Forces:  Max     0.000246605 RMS     0.000086802
 Search for a local minimum.
 Step number   5 out of a maximum of   24
 All quantities printed in internal units (Hartrees-Bohrs-Radians)
 Mixed Optimization -- En-DIIS/RFO-DIIS
 Swapping is turned off.
 Update second derivatives using D2CorX and points    1    2    3    4    5
 DE= -1.37D-06 DEPred=-9.18D-07 R= 1.49D+00
 TightC=F SS=  1.41D+00  RLast= 6.95D-03 DXNew= 5.0454D-01 2.0856D-02
 Trust test= 1.49D+00 RLast= 6.95D-03 DXMaxT set to 3.00D-01
 The second derivative matrix:
                          R1        R2        R3        R4        R5
           R1           0.54983
           R2          -0.02005   0.53053
           R3           0.00227  -0.00805   0.05148
           R4           0.00457  -0.02430   0.00550   0.52256
           R5          -0.06870   0.03184  -0.00145  -0.01086   0.59062
           A1           0.00159   0.01033  -0.00888  -0.01256   0.00080
           A2           0.00645  -0.01591   0.01172   0.01517  -0.01246
           A3           0.01233  -0.01882   0.03059   0.01689  -0.02298
           A4          -0.00383  -0.03275   0.03740   0.03982  -0.00507
           A5           0.00205   0.00575  -0.00366  -0.00704  -0.00120
           A6           0.00007   0.00114   0.00259  -0.00073  -0.00019
           D1          -0.00060  -0.00141   0.00151   0.00195   0.00037
           D2          -0.00529   0.01693  -0.00576  -0.01653   0.01041
           D3           0.00524  -0.01648   0.00695   0.01621  -0.01042
                          A1        A2        A3        A4        A5
           A1           0.15901
           A2          -0.01911   0.16175
           A3          -0.02891  -0.01682   0.06688
           A4          -0.03489   0.04048   0.05292   0.29440
           A5           0.00725  -0.00409  -0.00400  -0.01868   0.01422
           A6           0.00051   0.00246   0.00772   0.00175  -0.00024
           D1          -0.00160   0.00335   0.00766   0.00693  -0.00100
           D2           0.01777  -0.00811  -0.01059  -0.03555   0.00398
           D3          -0.01755   0.00783   0.00972   0.03486  -0.00390
                          A6        D1        D2        D3
           A6           0.01130
           D1          -0.00024   0.01224
           D2          -0.00012  -0.00158   0.00890
           D3           0.00005   0.00156  -0.00644   0.00854
 ITU=  1  1  1  1  0
     Eigenvalues ---    0.00222   0.00768   0.01185   0.01719   0.04780
     Eigenvalues ---    0.10612   0.13567   0.32134   0.49820   0.49996
     Eigenvalues ---    0.55558   0.66009
 En-DIIS/RFO-DIIS IScMMF=        0 using points:     5    4    3    2    1
 RFO step:  Lambda=-4.95833701D-07.
 DidBck=F Rises=F RFO-DIIS coefs:    2.97403   -1.77816   -0.48241    0.32119   -0.03465
 Iteration  1 RMS(Cart)=  0.00546576 RMS(Int)=  0.00003839
 Iteration  2 RMS(Cart)=  0.00003400 RMS(Int)=  0.00001392
 Iteration  3 RMS(Cart)=  0.00000000 RMS(Int)=  0.00001392
 Variable       Old X    -DE/DX   Delta X   Delta X   Delta X     New X
                                 (Linear)    (Quad)   (Total)
    R1        1.86519   0.00002   0.00026  -0.00014   0.00012   1.86531
    R2        1.86527  -0.00003   0.00017  -0.00032  -0.00015   1.86511
    R3        3.31518  -0.00017   0.00114  -0.00143  -0.00029   3.31489
    R4        1.86721   0.00000  -0.00029   0.00034   0.00004   1.86725
    R5        1.86977   0.00000  -0.00031   0.00014  -0.00017   1.86960
    A1        1.76162   0.00006  -0.00038  -0.00056  -0.00097   1.76065
    A2        1.94251   0.00000  -0.00182  -0.00095  -0.00280   1.93971
    A3        1.95568  -0.00025  -0.00658  -0.00382  -0.01042   1.94526
    A4        1.75208  -0.00002   0.00126  -0.00084   0.00042   1.75250
    A5        3.14059   0.00000   0.00165   0.00041   0.00206   3.14265
    A6        3.13407   0.00003   0.01016   0.00069   0.01085   3.14492
    D1       -2.06846   0.00008   0.00522   0.00311   0.00830  -2.06015
    D2       -2.17009  -0.00003  -0.00180  -0.00241  -0.00419  -2.17428
    D3        2.15491   0.00004   0.00399   0.00118   0.00515   2.16006
         Item               Value     Threshold  Converged?
 Maximum Force            0.000247     0.000450     YES
 RMS     Force            0.000087     0.000300     YES
 Maximum Displacement     0.013785     0.001800     NO 
 RMS     Displacement     0.005477     0.001200     NO 
 Predicted change in Energy=-1.577432D-06
 GradGradGradGradGradGradGradGradGradGradGradGradGradGradGradGradGradGrad

                          Input orientation:                          
 ---------------------------------------------------------------------
 Center     Atomic      Atomic             Coordinates (Angstroms)
 Number     Number       Type             X           Y           Z
 ---------------------------------------------------------------------
      1          8           0       -1.293376    0.106326   -0.061663
      2          1           0       -1.693763    0.119191    0.840472
      3          1           0       -1.699916   -0.712239   -0.434214
      4          8           0        1.438917   -0.103406    0.070360
      5          1           0        1.705151    0.689145   -0.456273
      6          1           0        0.453677   -0.026476    0.023503
 ---------------------------------------------------------------------
                    Distance matrix (angstroms):
                    1          2          3          4          5
     1  O    0.000000
     2  H    0.987078   0.000000
     3  H    0.986974   1.521887   0.000000
     4  O    2.743509   3.233622   3.236904   0.000000
     5  H    3.080025   3.682256   3.682233   0.988109   0.000000
     6  H    1.754162   2.302207   2.306023   0.989349   1.519370
                    6
     6  H    0.000000
 Stoichiometry    H4O2
 Framework group  C1[X(H4O2)]
 Deg. of freedom    12
 Full point group                 C1      NOp   1
 Largest Abelian subgroup         C1      NOp   1
 Largest concise Abelian subgroup C1      NOp   1
                         Standard orientation:                         
 ---------------------------------------------------------------------
 Center     Atomic      Atomic             Coordinates (Angstroms)
 Number     Number       Type             X           Y           Z
 ---------------------------------------------------------------------
      1          8           0        1.290155   -0.113774    0.026057
      2          1           0        1.690691    0.528578    0.659521
      3          1           0        1.694077    0.185686   -0.823230
      4          8           0       -1.442767    0.121041   -0.027254
      5          1           0       -1.706575   -0.808403    0.179862
      6          1           0       -0.457296    0.036007   -0.006573
 ---------------------------------------------------------------------
 Rotational constants (GHZ):    202.7049482      7.2130481      7.1966576
 Standard basis: STO-3G (5D, 7F)
 There are    14 symmetry adapted cartesian basis functions of A   symmetry.
 There are    14 symmetry adapted basis functions of A   symmetry.
    14 basis functions,    42 primitive gaussians,    14 cartesian basis functions
    10 alpha electrons       10 beta electrons
       nuclear repulsion energy        37.3336482021 Hartrees.
 NAtoms=    6 NActive=    6 NUniq=    6 SFac= 1.00D+00 NAtFMM=   60 NAOKFM=F Big=F
 Integral buffers will be    131072 words long.
 Raffenetti 1 integral format.
 Two-electron integral symmetry is turned on.
 One-electron integrals computed using PRISM.
 NBasis=    14 RedAO= T EigKep=  3.52D-01  NBF=    14
 NBsUse=    14 1.00D-06 EigRej= -1.00D+00 NBFU=    14
 Initial guess from the checkpoint file:  "h2o_dimer.chk"
 B after Tr=     0.000000    0.000000    0.000000
         Rot=    0.996140   -0.087778   -0.000210    0.000004 Ang= -10.07 deg.
 Keep R1 ints in memory in canonical form, NReq=831278.
 Requested convergence on RMS density matrix=1.00D-08 within 128 cycles.
 Requested convergence on MAX density matrix=1.00D-06.
 Requested convergence on             energy=1.00D-06.
 No special actions if energy rises.
 SCF Done:  E(RHF) =  -149.941242605     A.U. after    8 cycles
            NFock=  8  Conv=0.47D-08     -V/T= 2.0056
 Calling FoFJK, ICntrl=      2127 FMM=F ISym2X=0 I1Cent= 0 IOpClX= 0 NMat=1 NMatS=1 NMatT=0.
 ***** Axes restored to original set *****
 -------------------------------------------------------------------
 Center     Atomic                   Forces (Hartrees/Bohr)
 Number     Number              X              Y              Z
 -------------------------------------------------------------------
      1        8          -0.000011494    0.000051485    0.000152977
      2        1           0.000091048    0.000102936    0.000033116
      3        1           0.000086801   -0.000120164   -0.000162332
      4        8           0.000189188   -0.000029642    0.000046031
      5        1          -0.000081795   -0.000031530    0.000021705
      6        1          -0.000273748    0.000026915   -0.000091497
 -------------------------------------------------------------------
 Cartesian Forces:  Max     0.000273748 RMS     0.000111921

 GradGradGradGradGradGradGradGradGradGradGradGradGradGradGradGradGradGrad
 Berny optimization.
 Using GEDIIS/GDIIS optimizer.
 FormGI is forming the generalized inverse of G from B-inverse, IUseBI=4.
 Internal  Forces:  Max     0.000189743 RMS     0.000103965
 Search for a local minimum.
 Step number   6 out of a maximum of   24
 All quantities printed in internal units (Hartrees-Bohrs-Radians)
 Mixed Optimization -- En-DIIS/RFO-DIIS
 Swapping is turned off.
 Update second derivatives using D2CorX and points    1    2    3    4    5
                                                      6
 DE= -2.58D-06 DEPred=-1.58D-06 R= 1.63D+00
 TightC=F SS=  1.41D+00  RLast= 1.88D-02 DXNew= 5.0454D-01 5.6334D-02
 Trust test= 1.63D+00 RLast= 1.88D-02 DXMaxT set to 3.00D-01
 The second derivative matrix:
                          R1        R2        R3        R4        R5
           R1           0.55566
           R2          -0.02596   0.54436
           R3           0.00643  -0.01699   0.04170
           R4           0.00713  -0.03067   0.00667   0.52544
           R5          -0.07908   0.04773  -0.01073  -0.01743   0.61287
           A1          -0.00407   0.02256  -0.01316  -0.01705   0.01528
           A2           0.01034  -0.02368   0.00927   0.01764  -0.02104
           A3           0.01456  -0.02002   0.01736   0.01593  -0.02380
           A4           0.00830  -0.05230   0.03186   0.04550  -0.02975
           A5           0.00074   0.00910  -0.00367  -0.00826   0.00227
           A6           0.00188  -0.00332   0.00662   0.00116  -0.00558
           D1           0.00121  -0.00533   0.00331   0.00342  -0.00439
           D2          -0.00863   0.02549  -0.00840  -0.02008   0.01955
           D3           0.00867  -0.02525   0.01025   0.01992  -0.01989
                          A1        A2        A3        A4        A5
           A1           0.16906
           A2          -0.02494   0.16288
           A3          -0.02810  -0.02333   0.04493
           A4          -0.04942   0.04713   0.05116   0.31449
           A5           0.00990  -0.00522  -0.00310  -0.02187   0.01484
           A6          -0.00404   0.00572   0.01009   0.00945  -0.00150
           D1          -0.00504   0.00561   0.00952   0.01148  -0.00185
           D2           0.02516  -0.01194  -0.01028  -0.04572   0.00579
           D3          -0.02533   0.01206   0.00995   0.04610  -0.00585
                          A6        D1        D2        D3
           A6           0.01286
           D1           0.00104   0.01307
           D2          -0.00307  -0.00378   0.01371
           D3           0.00308   0.00387  -0.01150   0.01383
 ITU=  1  1  1  1  1  0
     Eigenvalues ---    0.00220   0.00644   0.01202   0.01590   0.03760
     Eigenvalues ---    0.09843   0.13926   0.33483   0.49853   0.50109
     Eigenvalues ---    0.56456   0.71397
 En-DIIS/RFO-DIIS IScMMF=        0 using points:     6    5    4    3    2
 RFO step:  Lambda=-3.75753638D-07.
 DidBck=F Rises=F RFO-DIIS coefs:    1.52191   -0.44469   -0.08954   -0.13640    0.14872
 Iteration  1 RMS(Cart)=  0.00405631 RMS(Int)=  0.00001780
 Iteration  2 RMS(Cart)=  0.00001429 RMS(Int)=  0.00000858
 Iteration  3 RMS(Cart)=  0.00000000 RMS(Int)=  0.00000858
 Variable       Old X    -DE/DX   Delta X   Delta X   Delta X     New X
                                 (Linear)    (Quad)   (Total)
    R1        1.86531  -0.00001   0.00011   0.00001   0.00012   1.86542
    R2        1.86511   0.00013  -0.00005   0.00017   0.00012   1.86524
    R3        3.31489  -0.00016  -0.00278  -0.00059  -0.00337   3.31152
    R4        1.86725  -0.00006  -0.00007   0.00005  -0.00002   1.86724
    R5        1.86960   0.00011  -0.00009   0.00021   0.00012   1.86972
    A1        1.76065   0.00019  -0.00022   0.00089   0.00065   1.76130
    A2        1.93971  -0.00005  -0.00138  -0.00071  -0.00210   1.93761
    A3        1.94526  -0.00017  -0.00470  -0.00273  -0.00744   1.93782
    A4        1.75250  -0.00013   0.00009   0.00032   0.00041   1.75291
    A5        3.14265   0.00003   0.00161   0.00081   0.00243   3.14507
    A6        3.14492  -0.00003   0.00676  -0.00281   0.00396   3.14887
    D1       -2.06015   0.00003   0.00373   0.00150   0.00522  -2.05493
    D2       -2.17428   0.00005   0.00010  -0.00200  -0.00188  -2.17616
    D3        2.16006  -0.00005   0.00425  -0.00092   0.00332   2.16338
         Item               Value     Threshold  Converged?
 Maximum Force            0.000190     0.000450     YES
 RMS     Force            0.000104     0.000300     YES
 Maximum Displacement     0.010439     0.001800     NO 
 RMS     Displacement     0.004063     0.001200     NO 
 Predicted change in Energy=-8.078466D-07
 GradGradGradGradGradGradGradGradGradGradGradGradGradGradGradGradGradGrad

                          Input orientation:                          
 ---------------------------------------------------------------------
 Center     Atomic      Atomic             Coordinates (Angstroms)
 Number     Number       Type             X           Y           Z
 ---------------------------------------------------------------------
      1          8           0       -1.294229    0.108688   -0.061874
      2          1           0       -1.692963    0.118584    0.841098
      3          1           0       -1.694392   -0.713337   -0.433885
      4          8           0        1.436075   -0.104868    0.069293
      5          1           0        1.705178    0.687827   -0.455643
      6          1           0        0.451022   -0.024353    0.023195
 ---------------------------------------------------------------------
                    Distance matrix (angstroms):
                    1          2          3          4          5
     1  O    0.000000
     2  H    0.987140   0.000000
     3  H    0.987040   1.522391   0.000000
     4  O    2.741782   3.230555   3.228505   0.000000
     5  H    3.080080   3.681431   3.677065   0.988099   0.000000
     6  H    1.752380   2.299144   2.299222   0.989413   1.519669
                    6
     6  H    0.000000
 Stoichiometry    H4O2
 Framework group  C1[X(H4O2)]
 Deg. of freedom    12
 Full point group                 C1      NOp   1
 Largest Abelian subgroup         C1      NOp   1
 Largest concise Abelian subgroup C1      NOp   1
                         Standard orientation:                         
 ---------------------------------------------------------------------
 Center     Atomic      Atomic             Coordinates (Angstroms)
 Number     Number       Type             X           Y           Z
 ---------------------------------------------------------------------
      1          8           0        1.289808   -0.116344    0.015405
      2          1           0        1.689021    0.466280    0.705059
      3          1           0        1.686289    0.265265   -0.804001
      4          8           0       -1.441315    0.123147   -0.015875
      5          1           0       -1.707299   -0.820885    0.104101
      6          1           0       -0.455951    0.034914   -0.001400
 ---------------------------------------------------------------------
 Rotational constants (GHZ):    202.2481601      7.2243949      7.2075795
 Standard basis: STO-3G (5D, 7F)
 There are    14 symmetry adapted cartesian basis functions of A   symmetry.
 There are    14 symmetry adapted basis functions of A   symmetry.
    14 basis functions,    42 primitive gaussians,    14 cartesian basis functions
    10 alpha electrons       10 beta electrons
       nuclear repulsion energy        37.3487491918 Hartrees.
 NAtoms=    6 NActive=    6 NUniq=    6 SFac= 1.00D+00 NAtFMM=   60 NAOKFM=F Big=F
 Integral buffers will be    131072 words long.
 Raffenetti 1 integral format.
 Two-electron integral symmetry is turned on.
 One-electron integrals computed using PRISM.
 NBasis=    14 RedAO= T EigKep=  3.52D-01  NBF=    14
 NBsUse=    14 1.00D-06 EigRej= -1.00D+00 NBFU=    14
 Initial guess from the checkpoint file:  "h2o_dimer.chk"
 B after Tr=     0.000000    0.000000    0.000000
         Rot=    0.998904   -0.046812   -0.000120   -0.000005 Ang=  -5.37 deg.
 Keep R1 ints in memory in canonical form, NReq=831278.
 Requested convergence on RMS density matrix=1.00D-08 within 128 cycles.
 Requested convergence on MAX density matrix=1.00D-06.
 Requested convergence on             energy=1.00D-06.
 No special actions if energy rises.
 SCF Done:  E(RHF) =  -149.941243816     A.U. after    8 cycles
            NFock=  8  Conv=0.74D-08     -V/T= 2.0056
 Calling FoFJK, ICntrl=      2127 FMM=F ISym2X=0 I1Cent= 0 IOpClX= 0 NMat=1 NMatS=1 NMatT=0.
 ***** Axes restored to original set *****
 -------------------------------------------------------------------
 Center     Atomic                   Forces (Hartrees/Bohr)
 Number     Number              X              Y              Z
 -------------------------------------------------------------------
      1        8           0.000014289    0.000032351    0.000131236
      2        1           0.000058601    0.000015273   -0.000076387
      3        1           0.000020691   -0.000032895   -0.000031752
      4        8           0.000199259   -0.000061563    0.000084162
      5        1          -0.000131687   -0.000027534    0.000018927
      6        1          -0.000161153    0.000074368   -0.000126186
 -------------------------------------------------------------------
 Cartesian Forces:  Max     0.000199259 RMS     0.000090355

 GradGradGradGradGradGradGradGradGradGradGradGradGradGradGradGradGradGrad
 Berny optimization.
 Using GEDIIS/GDIIS optimizer.
 FormGI is forming the generalized inverse of G from B-inverse, IUseBI=4.
 Internal  Forces:  Max     0.000219416 RMS     0.000077227
 Search for a local minimum.
 Step number   7 out of a maximum of   24
 All quantities printed in internal units (Hartrees-Bohrs-Radians)
 Mixed Optimization -- En-DIIS/RFO-DIIS
 Swapping is turned off.
 Update second derivatives using D2CorX and points    1    2    3    4    5
                                                      6    7
 DE= -1.21D-06 DEPred=-8.08D-07 R= 1.50D+00
 TightC=F SS=  1.41D+00  RLast= 1.16D-02 DXNew= 5.0454D-01 3.4872D-02
 Trust test= 1.50D+00 RLast= 1.16D-02 DXMaxT set to 3.00D-01
 The second derivative matrix:
                          R1        R2        R3        R4        R5
           R1           0.56733
           R2          -0.02408   0.54257
           R3           0.00033  -0.00275   0.02737
           R4           0.00912  -0.02735  -0.00017   0.52527
           R5          -0.08502   0.04397   0.00671  -0.01456   0.61333
           A1           0.00372   0.01663   0.00262  -0.00978   0.00473
           A2           0.00903  -0.01994  -0.00114   0.01460  -0.01631
           A3           0.00504  -0.01554   0.00214   0.00810  -0.01371
           A4           0.01896  -0.03732   0.01026   0.04221  -0.02207
           A5           0.00143   0.00769  -0.00014  -0.00725   0.00026
           A6           0.00571  -0.00171   0.00282   0.00141  -0.00644
           D1           0.00356  -0.00425   0.00112   0.00367  -0.00475
           D2          -0.00709   0.02468  -0.00113  -0.01836   0.01715
           D3           0.00752  -0.02473   0.00289   0.01831  -0.01803
                          A1        A2        A3        A4        A5
           A1           0.15885
           A2          -0.01933   0.15913
           A3          -0.02017  -0.02766   0.03903
           A4          -0.02308   0.03771   0.02499   0.31277
           A5           0.00789  -0.00386  -0.00159  -0.01847   0.01437
           A6          -0.00031   0.00477   0.00588   0.01333  -0.00114
           D1          -0.00337   0.00472   0.00801   0.01366  -0.00149
           D2           0.02424  -0.00984  -0.01099  -0.03882   0.00500
           D3          -0.02453   0.01018   0.01079   0.03986  -0.00512
                          A6        D1        D2        D3
           A6           0.01414
           D1           0.00186   0.01320
           D2          -0.00229  -0.00257   0.01230
           D3           0.00248   0.00277  -0.01028   0.01282
 ITU=  1  1  1  1  1  1  0
     Eigenvalues ---    0.00221   0.00642   0.01268   0.01506   0.02727
     Eigenvalues ---    0.09973   0.14811   0.31684   0.49848   0.50713
     Eigenvalues ---    0.55818   0.70776
 En-DIIS/RFO-DIIS IScMMF=        0 using points:     7    6    5    4    3
 RFO step:  Lambda=-1.79352659D-07.
 DidBck=F Rises=F RFO-DIIS coefs:    1.24948    0.10169   -1.24626    0.80257    0.09252
 Iteration  1 RMS(Cart)=  0.00207954 RMS(Int)=  0.00000746
 Iteration  2 RMS(Cart)=  0.00000263 RMS(Int)=  0.00000699
 Iteration  3 RMS(Cart)=  0.00000000 RMS(Int)=  0.00000699
 Variable       Old X    -DE/DX   Delta X   Delta X   Delta X     New X
                                 (Linear)    (Quad)   (Total)
    R1        1.86542  -0.00009  -0.00003  -0.00012  -0.00015   1.86527
    R2        1.86524   0.00003  -0.00005   0.00008   0.00003   1.86527
    R3        3.31152  -0.00009  -0.00350  -0.00008  -0.00358   3.30794
    R4        1.86724  -0.00007   0.00005  -0.00015  -0.00010   1.86713
    R5        1.86972   0.00008   0.00014   0.00006   0.00020   1.86991
    A1        1.76130   0.00004   0.00035  -0.00032   0.00003   1.76133
    A2        1.93761  -0.00001  -0.00058  -0.00027  -0.00082   1.93679
    A3        1.93782  -0.00005  -0.00178  -0.00092  -0.00269   1.93513
    A4        1.75291  -0.00022  -0.00060  -0.00001  -0.00061   1.75230
    A5        3.14507   0.00001   0.00107   0.00045   0.00152   3.14659
    A6        3.14887  -0.00004   0.00074  -0.00306  -0.00232   3.14655
    D1       -2.05493   0.00001   0.00117   0.00087   0.00205  -2.05288
    D2       -2.17616   0.00001   0.00075  -0.00103  -0.00028  -2.17644
    D3        2.16338  -0.00001   0.00186   0.00013   0.00199   2.16537
         Item               Value     Threshold  Converged?
 Maximum Force            0.000219     0.000450     YES
 RMS     Force            0.000077     0.000300     YES
 Maximum Displacement     0.004051     0.001800     NO 
 RMS     Displacement     0.002081     0.001200     NO 
 Predicted change in Energy=-3.096683D-07
 GradGradGradGradGradGradGradGradGradGradGradGradGradGradGradGradGradGrad

                          Input orientation:                          
 ---------------------------------------------------------------------
 Center     Atomic      Atomic             Coordinates (Angstroms)
 Number     Number       Type             X           Y           Z
 ---------------------------------------------------------------------
      1          8           0       -1.293920    0.109547   -0.062179
      2          1           0       -1.691455    0.118615    0.841243
      3          1           0       -1.692248   -0.713734   -0.433429
      4          8           0        1.434457   -0.105342    0.069458
      5          1           0        1.704419    0.687468   -0.454757
      6          1           0        0.449438   -0.024013    0.021848
 ---------------------------------------------------------------------
                    Distance matrix (angstroms):
                    1          2          3          4          5
     1  O    0.000000
     2  H    0.987060   0.000000
     3  H    0.987058   1.522365   0.000000
     4  O    2.739990   3.227558   3.224798   0.000000
     5  H    3.078660   3.679017   3.674394   0.988043   0.000000
     6  H    1.750485   2.296774   2.295608   0.989516   1.519321
                    6
     6  H    0.000000
 Stoichiometry    H4O2
 Framework group  C1[X(H4O2)]
 Deg. of freedom    12
 Full point group                 C1      NOp   1
 Largest Abelian subgroup         C1      NOp   1
 Largest concise Abelian subgroup C1      NOp   1
                         Standard orientation:                         
 ---------------------------------------------------------------------
 Center     Atomic      Atomic             Coordinates (Angstroms)
 Number     Number       Type             X           Y           Z
 ---------------------------------------------------------------------
      1          8           0        1.289090   -0.117069    0.011203
      2          1           0        1.686994    0.441016    0.721485
      3          1           0        1.683455    0.295855   -0.793940
      4          8           0       -1.440207    0.123712   -0.011363
      5          1           0       -1.706677   -0.823821    0.074683
      6          1           0       -0.454839    0.033802   -0.000943
 ---------------------------------------------------------------------
 Rotational constants (GHZ):    202.0857353      7.2347262      7.2176567
 Standard basis: STO-3G (5D, 7F)
 There are    14 symmetry adapted cartesian basis functions of A   symmetry.
 There are    14 symmetry adapted basis functions of A   symmetry.
    14 basis functions,    42 primitive gaussians,    14 cartesian basis functions
    10 alpha electrons       10 beta electrons
       nuclear repulsion energy        37.3637471545 Hartrees.
 NAtoms=    6 NActive=    6 NUniq=    6 SFac= 1.00D+00 NAtFMM=   60 NAOKFM=F Big=F
 Integral buffers will be    131072 words long.
 Raffenetti 1 integral format.
 Two-electron integral symmetry is turned on.
 One-electron integrals computed using PRISM.
 NBasis=    14 RedAO= T EigKep=  3.52D-01  NBF=    14
 NBsUse=    14 1.00D-06 EigRej= -1.00D+00 NBFU=    14
 Initial guess from the checkpoint file:  "h2o_dimer.chk"
 B after Tr=     0.000000    0.000000    0.000000
         Rot=    0.999834   -0.018230   -0.000017   -0.000011 Ang=  -2.09 deg.
 Keep R1 ints in memory in canonical form, NReq=831278.
 Requested convergence on RMS density matrix=1.00D-08 within 128 cycles.
 Requested convergence on MAX density matrix=1.00D-06.
 Requested convergence on             energy=1.00D-06.
 No special actions if energy rises.
 SCF Done:  E(RHF) =  -149.941244269     A.U. after    8 cycles
            NFock=  8  Conv=0.41D-08     -V/T= 2.0056
 Calling FoFJK, ICntrl=      2127 FMM=F ISym2X=0 I1Cent= 0 IOpClX= 0 NMat=1 NMatS=1 NMatT=0.
 ***** Axes restored to original set *****
 -------------------------------------------------------------------
[...]
  Exact polarizability:   7.020   2.968   5.081  -0.260   0.049   5.426
 Approx polarizability:   5.125   1.848   4.538  -0.161  -0.050   3.894
 Calling FoFJK, ICntrl=    100127 FMM=F ISym2X=0 I1Cent= 0 IOpClX= 0 NMat=1 NMatS=1 NMatT=0.
 Full mass-weighted force constant matrix:
 Low frequencies ---  -16.0175   -1.6490   -1.0496    0.0005    0.0012    0.0016
 Low frequencies ---  111.6913  242.9693  280.9810
 Diagonal vibrational polarizability:
       65.5348976      18.2852950     239.2245259
 Diagonal vibrational hyperpolarizability:
      146.3973532      58.5260154     318.8399735
 Harmonic frequencies (cm**-1), IR intensities (KM/Mole), Raman scattering
 activities (A**4/AMU), depolarization ratios for plane and unpolarized
 incident light, reduced masses (AMU), force constants (mDyne/A),
 and normal coordinates:
                      1                      2                      3
                      A                      A                      A
 Frequencies --    111.6853               242.9690               280.9808
 Red. masses --      1.0479                 1.5085                 2.2778
 Frc consts  --      0.0077                 0.0525                 0.1060
 IR Inten    --    108.8202                62.4263               126.6526
 Raman Activ --     10.9510                 0.3833                 0.5084
 Depolar (P) --      0.7500                 0.7499                 0.6538
 Depolar (U) --      0.8571                 0.8571                 0.7907
  Atom  AN      X      Y      Z        X      Y      Z        X      Y      Z
     1   8     0.00   0.00   0.03     0.09   0.03   0.00     0.24  -0.05   0.00
     2   1     0.04   0.33  -0.25     0.53  -0.33   0.03    -0.23   0.34  -0.04
     3   1    -0.04  -0.37  -0.19     0.53  -0.33   0.03    -0.19   0.33  -0.02
     4   8     0.00   0.00   0.04    -0.16  -0.01   0.00    -0.16   0.02   0.00
     5   1     0.00  -0.07  -0.79     0.20  -0.11   0.01    -0.61   0.15  -0.01
     6   1     0.00   0.01   0.12    -0.12   0.34  -0.03    -0.19  -0.42   0.03
                      4                      5                      6
                      A                      A                      A
 Frequencies --    289.6238               471.4294               734.5626
 Red. masses --      1.0533                 1.1431                 1.0458
 Frc consts  --      0.0521                 0.1497                 0.3325
 IR Inten    --      0.9322                79.8508               122.4178
 Raman Activ --     13.1143                 6.3531                 0.9669
 Depolar (P) --      0.7500                 0.7408                 0.7500
 Depolar (U) --      0.8571                 0.8511                 0.8571
  Atom  AN      X      Y      Z        X      Y      Z        X      Y      Z
     1   8     0.00   0.00   0.04    -0.05   0.07  -0.01     0.00   0.00   0.04
     2   1     0.60  -0.19  -0.15     0.30  -0.23   0.03     0.25  -0.04  -0.07
     3   1    -0.61   0.17  -0.18     0.30  -0.23   0.01    -0.25   0.03  -0.07
     4   8     0.00   0.00  -0.04     0.05  -0.01   0.00     0.00   0.00   0.03
     5   1    -0.01   0.00   0.03    -0.58   0.16  -0.02     0.00   0.00  -0.05
     6   1     0.00   0.03   0.37    -0.01  -0.58   0.05     0.00  -0.08  -0.92
                      7                      8                      9
                      A                      A                      A
 Frequencies --   2147.5895              2201.1476              4134.8148
 Red. masses --      1.0811                 1.0738                 1.0483
 Frc consts  --      2.9378                 3.0654                10.5601
 IR Inten    --     12.6188                12.6596               180.0182
 Raman Activ --     11.1283                 6.6029                80.6634
 Depolar (P) --      0.7249                 0.7141                 0.2369
 Depolar (U) --      0.8405                 0.8332                 0.3831
  Atom  AN      X      Y      Z        X      Y      Z        X      Y      Z
     1   8     0.05   0.05  -0.01    -0.01   0.00   0.00     0.00   0.00   0.00
     2   1    -0.35  -0.37   0.48     0.06   0.04  -0.07     0.02   0.02   0.04
     3   1    -0.35  -0.45  -0.40     0.06   0.05   0.06     0.02   0.02  -0.05
     4   8    -0.01   0.01   0.00    -0.03   0.06  -0.01     0.03  -0.04   0.00
     5   1     0.09  -0.03   0.00     0.63  -0.19   0.02     0.23   0.65  -0.06
     6   1     0.00  -0.09   0.01    -0.07  -0.73   0.07    -0.72   0.02   0.00
                     10                     11                     12
                      A                      A                      A
 Frequencies --   4171.7004              4378.8941              4417.2533
 Red. masses --      1.0491                 1.0770                 1.0781
 Frc consts  --     10.7567                12.1670                12.3942
 IR Inten    --     18.2469                70.0633                10.3014
 Raman Activ --     56.3769                35.1812                25.5719
 Depolar (P) --      0.1269                 0.6910                 0.7500
 Depolar (U) --      0.2252                 0.8173                 0.8571
  Atom  AN      X      Y      Z        X      Y      Z        X      Y      Z
     1   8    -0.03  -0.04   0.00     0.00   0.00   0.00     0.00   0.01   0.07
     2   1     0.26   0.37   0.54    -0.01  -0.01  -0.01    -0.28  -0.40  -0.51
     3   1     0.26   0.26  -0.60    -0.01  -0.01   0.01     0.28   0.30  -0.58
     4   8     0.00   0.00   0.00     0.06   0.04   0.00     0.00   0.00   0.00
     5   1    -0.02  -0.06   0.01    -0.20  -0.69   0.06     0.00   0.00   0.00
     6   1     0.04   0.00   0.00    -0.69   0.07  -0.01     0.00   0.00   0.00

 -------------------
 - Thermochemistry -
 -------------------
 Temperature   298.150 Kelvin.  Pressure   1.00000 Atm.
 Atom     1 has atomic number  8 and mass  15.99491
 Atom     2 has atomic number  1 and mass   1.00783
 Atom     3 has atomic number  1 and mass   1.00783
 Atom     4 has atomic number  8 and mass  15.99491
 Atom     5 has atomic number  1 and mass   1.00783
 Atom     6 has atomic number  1 and mass   1.00783
 Molecular mass:    36.02113 amu.
 Principal axes and moments of inertia in atomic units:
                           1         2         3
     Eigenvalues --     8.93057 249.45536 250.04531
           X            0.99924   0.03892  -0.00078
           Y           -0.03876   0.99656   0.07332
           Z            0.00363  -0.07323   0.99731
 This molecule is an asymmetric top.
 Rotational symmetry number  1.
 Rotational temperatures (Kelvin)      9.69857     0.34721     0.34639
 Rotational constants (GHZ):         202.08574     7.23473     7.21766
 Zero-point vibrational energy     141055.6 (Joules/Mol)
                                   33.71309 (Kcal/Mol)
 Warning -- explicit consideration of   5 degrees of freedom as
           vibrations may cause significant error
 Vibrational temperatures:    160.69   349.58   404.27   416.70   678.28
          (Kelvin)           1056.87  3089.90  3166.96  5949.07  6002.14
                             6300.24  6355.43
 
 Zero-point correction=                           0.053725 (Hartree/Particle)
 Thermal correction to Energy=                    0.058991
 Thermal correction to Enthalpy=                  0.059935
 Thermal correction to Gibbs Free Energy=         0.028267
 Sum of electronic and zero-point Energies=           -149.887519
 Sum of electronic and thermal Energies=              -149.882254
 Sum of electronic and thermal Enthalpies=            -149.881309
 Sum of electronic and thermal Free Energies=         -149.912977
 
                     E (Thermal)             CV                S
                      KCal/Mol        Cal/Mol-Kelvin    Cal/Mol-Kelvin
 Total                   37.017             15.168             66.650
 Electronic               0.000              0.000              0.000
 Translational            0.889              2.981             36.674
 Rotational               0.889              2.981             20.949
 Vibrational             35.240              9.206              9.027
 Vibration     1          0.607              1.940              3.239
 Vibration     2          0.659              1.774              1.781
 Vibration     3          0.681              1.709              1.528
 Vibration     4          0.686              1.693              1.476
 Vibration     5          0.828              1.313              0.734
                       Q            Log10(Q)             Ln(Q)
 Total Bot       0.995343D-13        -13.002027        -29.938274
 Total V=0       0.512638D+12         11.709811         26.962836
 Vib (Bot)       0.138640D-23        -23.858110        -54.935329
 Vib (Bot)    1  0.183317D+01          0.263202          0.606045
 Vib (Bot)    2  0.805923D+00         -0.093707         -0.215767
 Vib (Bot)    3  0.683898D+00         -0.165009         -0.379946
 Vib (Bot)    4  0.660417D+00         -0.180182         -0.414883
 Vib (Bot)    5  0.357362D+00         -0.446892         -1.029006
 Vib (V=0)       0.714049D+01          0.853728          1.965781
 Vib (V=0)    1  0.240013D+01          0.380235          0.875524
 Vib (V=0)    2  0.144843D+01          0.160896          0.370477
 Vib (V=0)    3  0.134718D+01          0.129426          0.298015
 Vib (V=0)    4  0.132834D+01          0.123310          0.283932
 Vib (V=0)    5  0.111458D+01          0.047111          0.108477
 Electronic      0.100000D+01          0.000000          0.000000
 Translational   0.849750D+07          6.929291         15.955283
 Rotational      0.844874D+04          3.926792          9.041772
 ***** Axes restored to original set *****
 -------------------------------------------------------------------
 Center     Atomic                   Forces (Hartrees/Bohr)
 Number     Number              X              Y              Z
 -------------------------------------------------------------------
      1        8          -0.000021692   -0.000013138    0.000015024
      2        1           0.000020069    0.000020053    0.000011016
      3        1           0.000010687   -0.000000239   -0.000021331
      4        8           0.000027265   -0.000025567    0.000040387
      5        1          -0.000006203    0.000024433   -0.000014370
      6        1          -0.000030126   -0.000005543   -0.000030726
 -------------------------------------------------------------------
 Cartesian Forces:  Max     0.000040387 RMS     0.000021235
 FormGI is forming the generalized inverse of G from B-inverse, IUseBI=4.

 GradGradGradGradGradGradGradGradGradGradGradGradGradGradGradGradGradGrad
 Berny optimization.
 Internal  Forces:  Max     0.000032521 RMS     0.000017599
 Search for a local minimum.
 Step number   1 out of a maximum of    2
 All quantities printed in internal units (Hartrees-Bohrs-Radians)
 Second derivative matrix not updated -- analytic derivatives used.
 The second derivative matrix:
                          R1        R2        R3        R4        R5
           R1           0.66297
           R2          -0.02947   0.66297
           R3          -0.00192  -0.00192   0.02439
           R4          -0.00036  -0.00035  -0.00108   0.65292
           R5          -0.00087  -0.00087   0.01389  -0.03033   0.65420
           A1           0.02312   0.02316   0.00356   0.00003  -0.00063
           A2          -0.00635  -0.00719  -0.00110  -0.00028   0.00038
           A3          -0.00567  -0.00436  -0.00093  -0.00072   0.00062
           A4          -0.00035  -0.00035   0.00428   0.03952   0.03346
           A5           0.00297   0.00299   0.00124  -0.00174  -0.00149
           A6          -0.00074   0.00078  -0.00005   0.00001  -0.00004
           D1          -0.00263  -0.00223  -0.00023   0.00061  -0.00036
           D2           0.01003   0.01065   0.00144  -0.00006  -0.00006
           D3          -0.01051  -0.01019  -0.00144   0.00006   0.00006
                          A1        A2        A3        A4        A5
           A1           0.12015
           A2          -0.03857   0.01712
           A3          -0.03440   0.00564   0.02406
           A4          -0.00033  -0.00002  -0.00025   0.28353
           A5           0.01218  -0.00304  -0.00058  -0.00583   0.01647
           A6           0.00015  -0.00153   0.00233  -0.00005   0.00003
           D1          -0.00518  -0.00153   0.00176   0.00030  -0.00274
           D2           0.05081  -0.01687  -0.01199   0.00039   0.00448
           D3          -0.05083   0.01634   0.01284  -0.00038  -0.00447
                          A6        D1        D2        D3
           A6           0.00709
           D1           0.00071   0.00377
           D2           0.00088  -0.00262   0.02247
           D3           0.00027   0.00288  -0.02178   0.02232
 ITU=  0
     Eigenvalues ---    0.00050   0.00516   0.00652   0.01514   0.01901
     Eigenvalues ---    0.02403   0.18329   0.27597   0.63077   0.63750
     Eigenvalues ---    0.68411   0.69245
 Angle between quadratic step and forces=  73.24 degrees.
 Linear search not attempted -- first point.
 Iteration  1 RMS(Cart)=  0.00254400 RMS(Int)=  0.00000589
 Iteration  2 RMS(Cart)=  0.00000654 RMS(Int)=  0.00000097
 Iteration  3 RMS(Cart)=  0.00000000 RMS(Int)=  0.00000097
 Variable       Old X    -DE/DX   Delta X   Delta X   Delta X     New X
                                 (Linear)    (Quad)   (Total)
    R1        1.86527   0.00000   0.00000   0.00000   0.00000   1.86527
    R2        1.86527   0.00000   0.00000   0.00000   0.00000   1.86527
    R3        3.30794  -0.00001   0.00000  -0.00042  -0.00042   3.30751
    R4        1.86713   0.00003   0.00000   0.00005   0.00005   1.86718
    R5        1.86991   0.00002   0.00000   0.00005   0.00005   1.86997
    A1        1.76133   0.00003   0.00000   0.00016   0.00016   1.76149
    A2        1.93679  -0.00002   0.00000  -0.00145  -0.00145   1.93533
    A3        1.93513  -0.00001   0.00000   0.00021   0.00021   1.93534
    A4        1.75230  -0.00003   0.00000  -0.00009  -0.00009   1.75221
    A5        3.14659   0.00000   0.00000   0.00016   0.00016   3.14675
    A6        3.14655  -0.00003   0.00000  -0.00496  -0.00496   3.14159
    D1       -2.05288   0.00001   0.00000   0.00150   0.00150  -2.05138
    D2       -2.17644   0.00001   0.00000   0.00528   0.00527  -2.17116
    D3        2.16537  -0.00001   0.00000   0.00580   0.00580   2.17118
         Item               Value     Threshold  Converged?
 Maximum Force            0.000033     0.000450     YES
 RMS     Force            0.000018     0.000300     YES
 Maximum Displacement     0.004585     0.001800     NO 
 RMS     Displacement     0.002545     0.001200     NO 
 Predicted change in Energy=-9.047193D-08
 GradGradGradGradGradGradGradGradGradGradGradGradGradGradGradGradGradGrad

 1\1\GINC-MAYANK-HP\Freq\RHF\STO-3G\H4O2\MAYANK\19-Feb-2025\0\\#N Geom=
 AllCheck Guess=TCheck SCRF=Check GenChk RHF/STO-3G Freq\\Title Card Re
 quired\\0,1\O,-1.2939200625,0.1095466965,-0.0621787191\H,-1.6914545989
 ,0.1186153615,0.8412430276\H,-1.6922483049,-0.7137344569,-0.4334286657
 \O,1.4344566792,-0.1053424207,0.0694578241\H,1.7044191182,0.6874684474
 ,-0.4547569653\H,0.4494381687,-0.0240126279,0.0218484982\\Version=AM64
 L-G09RevD.01\State=1-A\HF=-149.9412443\RMSD=2.511e-10\RMSF=2.124e-05\Z
 eroPoint=0.0537252\Thermal=0.0589907\Dipole=-1.1116606,-0.0157351,0.01
 12955\DipoleDeriv=-0.6914307,0.1916971,-0.1234119,0.3037903,-0.146633,
 0.0519565,-0.19752,0.0523607,-0.1001963,0.1624154,-0.0556388,0.1777479
 ,-0.0889877,0.2211271,0.0489503,0.1614358,0.0056268,-0.0457114,0.16233
 06,-0.1852591,-0.0205377,-0.1838354,-0.0223967,-0.1011593,0.0165913,-0
 .0580038,0.1979882,-0.2151067,-0.0459427,0.0276735,0.0035276,-0.171382
 8,-0.2818329,-0.0048651,-0.2816183,-0.4132712,0.155587,-0.0181435,0.01
 25395,-0.0818475,-0.0903352,0.2279242,0.054581,0.2275807,0.1043911,0.4
 262045,0.113287,-0.0740113,0.0473527,0.2096206,0.0541612,-0.0302231,0.
 0540538,0.2567996\Polar=7.0419198,2.4726745,5.1446074,-1.6495071,0.164
 1367,5.3407339\PolarDeriv=4.6142128,1.9967463,0.8360285,-1.3085664,0.6
 271636,1.3918452,0.3154032,1.7117087,3.6773819,0.1991653,0.124039,1.17
 63117,-0.2083684,0.1979127,-0.0119,1.8851477,0.9664963,-3.1633532,-1.7
 950443,0.3294631,-0.2414625,2.3952687,-0.284928,-0.8991947,0.0256139,-
 0.8874151,0.4344074,-0.0050143,1.7098396,-0.4444714,0.4932424,-0.03383
 63,0.1760448,-1.3682564,0.6502777,5.2418563,-1.800139,-2.0600238,-0.58
 12238,-1.2631951,-0.432934,-0.555997,-0.4414673,-1.2782824,-4.2351344,
 -0.2042844,-1.7719917,-0.7242834,-0.2221788,-0.1751424,-0.1549405,-0.9
 803328,-1.6873107,-2.0081483,6.2050773,-0.8680315,0.163291,0.5491714,-
 0.126449,0.0602881,-1.5705266,0.2786451,-3.7083239,0.5409522,1.5599754
 ,-0.4347021,1.0114515,0.5295427,0.6605597,0.7321655,-1.7957167,2.05688
 19,1.8021294,1.6543441,0.0562316,-1.0942293,-0.0129722,0.0450846,0.771
 8132,1.6400839,4.0201785,-0.4030419,-1.581638,0.3541641,-0.5068971,-0.
 3989772,-0.5170285,1.3004617,1.9536799,-2.3781175,-9.0262363,-1.052498
 1,-0.2328648,0.7215507,0.2301195,-0.0420261,0.8991636,-1.4647401,-0.18
 85095,-0.1277769,-0.0402243,0.0729811,-0.5672496,-0.1194994,-0.1527354
 ,-1.5691857,-0.0874264,0.2508808\HyperPolar=6.1966507,1.122673,-0.9429
 827,-0.8493985,-0.7322511,-2.9974057,-5.595868,-3.5283938,1.0007537,5.
 4671748\PG=C01 [X(H4O2)]\NImag=0\\0.29785073,0.25771180,0.51410066,-0.
 16801203,0.20663387,0.69596222,-0.13460077,-0.01188577,0.25960446,0.12
 492598,-0.05495381,-0.05561315,0.03059480,0.02497623,0.05930058,0.2028
 2227,-0.06057844,-0.54520739,-0.22771092,0.03535657,0.56631960,-0.1349
 7884,-0.24276548,-0.09365121,0.00766548,0.02753395,0.02603397,0.125315
 23,-0.20820082,-0.45473926,-0.23575069,-0.01274770,-0.00353870,0.02488
 748,0.21890935,0.45804644,-0.03133991,-0.14458743,-0.14572435,-0.03574
 498,-0.06607750,-0.02162098,0.06885974,0.21036586,0.16721074,-0.011431
 92,-0.00007707,0.00011937,-0.00034322,-0.00018610,-0.00083940,-0.00031
 701,0.00069603,0.00050630,0.75358074,-0.00211265,0.00389438,0.00014148
 ,-0.00051703,-0.00029669,0.00017523,0.00112426,0.00019826,-0.00002024,
 0.06686633,0.47974808,0.00140725,0.00014666,0.00401185,-0.00144401,-0.
 00023432,0.00027042,0.00106111,0.00038671,-0.00023127,-0.04859075,-0.3
 1247128,0.21255604,-0.00230787,0.00105128,-0.00069334,0.00026180,-0.00
 006625,-0.00019255,0.00025353,0.00014418,0.00014012,-0.11804155,-0.069
 55322,0.04656325,0.13510991,0.00061790,0.00030741,-0.00050107,0.000586
 85,-0.00007545,-0.00016000,0.00022856,-0.00009914,0.00024353,-0.168568
 50,-0.41598385,0.27466799,0.14008701,0.41698212,-0.00039296,-0.0005048
 5,-0.00011616,-0.00000371,0.00025178,-0.00005827,-0.00054053,-0.000167
 78,-0.00004111,0.11182635,0.27406260,-0.18215303,-0.09316087,-0.275473
 78,0.18248333,-0.01453132,-0.00403475,0.00263276,0.00209073,0.00269598
 ,-0.00011337,0.00206161,0.00119895,-0.00242127,-0.62344705,0.00419231,
 0.00100316,-0.01527582,0.02704818,-0.01772829,0.64910186,0.00693759,-0
 .00795003,-0.00111838,-0.00041259,0.00022341,0.00031917,-0.00503065,0.
 00013241,0.00007577,0.10126932,-0.06756018,0.03750424,-0.07166299,-0.0
 0113109,0.00183202,-0.03110068,0.07628547,-0.00448461,-0.00110981,-0.0
 0892616,0.00529916,0.00010867,0.00029662,-0.00176308,0.00027842,0.0004
 0698,-0.06302187,0.03811222,-0.03445399,0.04734339,0.00122333,-0.00011
 476,0.01662701,-0.03861282,0.04279131\\0.00002169,0.00001314,-0.000015
 02,-0.00002007,-0.00002005,-0.00001102,-0.00001069,0.00000024,0.000021
 33,-0.00002727,0.00002557,-0.00004039,0.00000620,-0.00002443,0.0000143
 7,0.00003013,0.00000554,0.00003073\\\@



 WE LOSE BECAUSE WE WIN

 GAMBLERS,

 RECOLLECTING WHICH,

 TOSS THEIR DICE AGAIN....


                          EMILY DICKINSON  BOLTS OF MELODY NO. 533
 Job cpu time:       0 days  0 hours  0 minutes  0.8 seconds.
 File lengths (MBytes):  RWF=      5 Int=      0 D2E=      0 Chk=      1 Scr=      1
 Normal termination of Gaussian 09 at Wed Feb 19 03:13:43 2025.
