 Entering Gaussian System, Link 0=g09
 Input=/home/mayank/Desktop/software/gaussian/Gview_and_Gaussian/g09/scratch/Q5/h2s_dimer.com
 Output=/home/mayank/Desktop/software/gaussian/Gview_and_Gaussian/g09/scratch/Q5/h2s_dimer.log
 Initial command:
 /home/mayank/Desktop/software/gaussian/Gview_and_Gaussian/g09/l1.exe "/home/mayank/Desktop/software/gaussian/Gview_and_Gaussian/g09/scratch/Gau-72977.inp" -scrdir="/home/mayank/Desktop/software/gaussian/Gview_and_Gaussian/g09/scratch/"
 Entering Link 1 = /home/mayank/Desktop/software/gaussian/Gview_and_Gaussian/g09/l1.exe PID=     72980.
  
 Copyright (c) 1988,1990,1992,1993,1995,1998,2003,2009,2013,
            Gaussian, Inc.  All Rights Reserved.
  
 This is part of the Gaussian(R) 09 program.  It is based on
 the Gaussian(R) 03 system (copyright 2003, Gaussian, Inc.),
 the Gaussian(R) 98 system (copyright 1998, Gaussian, Inc.),
 the Gaussian(R) 94 system (copyright 1995, Gaussian, Inc.),
 the Gaussian 92(TM) system (copyright 1992, Gaussian, Inc.),
 the Gaussian 90(TM) system (copyright 1990, Gaussian, Inc.),
 the Gaussian 88(TM) system (copyright 1988, Gaussian, Inc.),
 the Gaussian 86(TM) system (copyright 1986, Carnegie Mellon
 University), and the Gaussian 82(TM) system (copyright 1983,
 Carnegie Mellon University). Gaussian is a federally registered
 trademark of Gaussian, Inc.
  
 This software contains proprietary and confidential information,
 including trade secrets, belonging to Gaussian, Inc.
  
 This software is provided under written license and may be
 used, copied, transmitted, or stored only in accord with that
 written license.
  
 The following legend is applicable only to US Government
 contracts under FAR:
  
                    RESTRICTED RIGHTS LEGEND
  
 Use, reproduction and disclosure by the US Government is
 subject to restrictions as set forth in subparagraphs (a)
 and (c) of the Commercial Computer Software - Restricted
 Rights clause in FAR 52.227-19.
  
 Gaussian, Inc.
 340 Quinnipiac St., Bldg. 40, Wallingford CT 06492
  
  
 ---------------------------------------------------------------
 Warning -- This program may not be used in any manner that
 competes with the business of Gaussian, Inc. or will provide
 assistance to any competitor of Gaussian, Inc.  The licensee
 of this program is prohibited from giving any competitor of
 Gaussian, Inc. access to this program.  By using this program,
 the user acknowledges that Gaussian, Inc. is engaged in the
 business of creating and licensing software in the field of
 computational chemistry and represents and warrants to the
 licensee that it is not a competitor of Gaussian, Inc. and that
 it will not use this program in any manner prohibited above.
 ---------------------------------------------------------------
  

 Cite this work as:
 Gaussian 09, Revision D.01,
 M. J. Frisch, G. W. Trucks, H. B. Schlegel, G. E. Scuseria, 
 M. A. Robb, J. R. Cheeseman, G. Scalmani, V. Barone, B. Mennucci, 
 G. A. Petersson, H. Nakatsuji, M. Caricato, X. Li, H. P. Hratchian, 
 A. F. Izmaylov, J. Bloino, G. Zheng, J. L. Sonnenberg, M. Hada, 
 M. Ehara, K. Toyota, R. Fukuda, J. Hasegawa, M. Ishida, T. Nakajima, 
 Y. Honda, O. Kitao, H. Nakai, T. Vreven, J. A. Montgomery, Jr., 
 J. E. Peralta, F. Ogliaro, M. Bearpark, J. J. Heyd, E. Brothers, 
 K. N. Kudin, V. N. Staroverov, T. Keith, R. Kobayashi, J. Normand, 
 K. Raghavachari, A. Rendell, J. C. Burant, S. S. Iyengar, J. Tomasi, 
 M. Cossi, N. Rega, J. M. Millam, M. Klene, J. E. Knox, J. B. Cross, 
 V. Bakken, C. Adamo, J. Jaramillo, R. Gomperts, R. E. Stratmann, 
 O. Yazyev, A. J. Austin, R. Cammi, C. Pomelli, J. W. Ochterski, 
 R. L. Martin, K. Morokuma, V. G. Zakrzewski, G. A. Voth, 
 P. Salvador, J. J. Dannenberg, S. Dapprich, A. D. Daniels, 
 O. Farkas, J. B. Foresman, J. V. Ortiz, J. Cioslowski, 
 and D. J. Fox, Gaussian, Inc., Wallingford CT, 2013.
 
 ******************************************
 Gaussian 09:  AM64L-G09RevD.01 24-Apr-2013
                19-Feb-2025 
 ******************************************
 %chk=h2s_dimer.chk
 --------------------------------------
 # opt freq hf/sto-3g geom=connectivity
 --------------------------------------
 1/18=20,19=15,38=1,57=2/1,3;
 2/9=110,12=2,17=6,18=5,40=1/2;
 3/6=3,11=9,16=1,25=1,30=1,71=1/1,2,3;
 4//1;
 5/5=2,38=5/2;
 6/7=2,8=2,9=2,10=2,28=1/1;
 7//1,2,3,16;
 1/18=20,19=15/3(2);
 2/9=110/2;
 99//99;
 2/9=110/2;
 3/6=3,11=9,16=1,25=1,30=1,71=1/1,2,3;
 4/5=5,16=3,69=1/1;
 5/5=2,38=5/2;
 7//1,2,3,16;
 1/18=20,19=15/3(-5);
 2/9=110/2;
 6/7=2,8=2,9=2,10=2,19=2,28=1/1;
 99/9=1/99;
 -------------------
 Title Card Required
 -------------------
 Symbolic Z-matrix:
 Charge =  0 Multiplicity = 1
 S                     1.68476   0.07734  -0.07307 
 H                     1.92132   0.13461   1.233 
 H                     2.02462  -1.20661  -0.13468 
 S                    -1.78335  -0.08553   0.01655 
 H                    -1.918     1.22599  -0.17603 
 H                    -0.4506   -0.02294  -0.01789 
 
 Add virtual bond connecting atoms H6         and S1         Dist= 4.04D+00.

 GradGradGradGradGradGradGradGradGradGradGradGradGradGradGradGradGradGrad
 Berny optimization.
 Initialization pass.
                           ----------------------------
                           !    Initial Parameters    !
                           ! (Angstroms and Degrees)  !
 --------------------------                            --------------------------
 ! Name  Definition              Value          Derivative Info.                !
 --------------------------------------------------------------------------------
 ! R1    R(1,2)                  1.3286         estimate D2E/DX2                !
 ! R2    R(1,3)                  1.3296         estimate D2E/DX2                !
 ! R3    R(1,6)                  2.1384         estimate D2E/DX2                !
 ! R4    R(4,5)                  1.3324         estimate D2E/DX2                !
 ! R5    R(4,6)                  1.3347         estimate D2E/DX2                !
 ! A1    A(2,1,3)               92.3876         estimate D2E/DX2                !
 ! A2    A(2,1,6)               98.8849         estimate D2E/DX2                !
 ! A3    A(3,1,6)              102.19           estimate D2E/DX2                !
 ! A4    A(5,4,6)               92.9246         estimate D2E/DX2                !
 ! A5    L(1,6,4,5,-1)         180.0            estimate D2E/DX2                !
 ! A6    L(1,6,4,5,-2)         180.0            estimate D2E/DX2                !
 ! D1    D(2,1,3,6)             99.6226         estimate D2E/DX2                !
 ! D2    D(2,1,4,5)             96.3874         estimate D2E/DX2                !
 ! D3    D(3,1,4,5)           -169.2016         estimate D2E/DX2                !
 --------------------------------------------------------------------------------
 Trust Radius=3.00D-01 FncErr=1.00D-07 GrdErr=1.00D-07
 Number of steps in this run=     24 maximum allowed number of steps=    100.
 GradGradGradGradGradGradGradGradGradGradGradGradGradGradGradGradGradGrad

                          Input orientation:                          
 ---------------------------------------------------------------------
 Center     Atomic      Atomic             Coordinates (Angstroms)
 Number     Number       Type             X           Y           Z
 ---------------------------------------------------------------------
      1         16           0        1.684764    0.077342   -0.073074
      2          1           0        1.921316    0.134609    1.232996
      3          1           0        2.024624   -1.206606   -0.134676
      4         16           0       -1.783348   -0.085533    0.016549
      5          1           0       -1.917999    1.225987   -0.176030
      6          1           0       -0.450600   -0.022942   -0.017892
 ---------------------------------------------------------------------
                    Distance matrix (angstroms):
                    1          2          3          4          5
     1  S    0.000000
     2  H    1.328554   0.000000
     3  H    1.329595   1.918347   0.000000
     4  S    3.473091   3.905476   3.972446   0.000000
     5  H    3.782841   4.232824   4.632871   1.332405   0.000000
     6  H    2.138430   2.686174   2.746167   1.334661   1.933414
                    6
     6  H    0.000000
 Stoichiometry    H4S2
 Framework group  C1[X(H4S2)]
 Deg. of freedom    12
 Full point group                 C1      NOp   1
 Largest Abelian subgroup         C1      NOp   1
 Largest concise Abelian subgroup C1      NOp   1
                         Standard orientation:                         
 ---------------------------------------------------------------------
 Center     Atomic      Atomic             Coordinates (Angstroms)
 Number     Number       Type             X           Y           Z
 ---------------------------------------------------------------------
      1         16           0        1.684764    0.077342   -0.073074
      2          1           0        1.921316    0.134609    1.232996
      3          1           0        2.024624   -1.206606   -0.134676
      4         16           0       -1.783348   -0.085533    0.016549
      5          1           0       -1.917999    1.225987   -0.176030
      6          1           0       -0.450600   -0.022942   -0.017892
 ---------------------------------------------------------------------
 Rotational constants (GHZ):    100.1512169      2.4532084      2.4341846
 Standard basis: STO-3G (5D, 7F)
 There are    22 symmetry adapted cartesian basis functions of A   symmetry.
 There are    22 symmetry adapted basis functions of A   symmetry.
    22 basis functions,    66 primitive gaussians,    22 cartesian basis functions
    18 alpha electrons       18 beta electrons
       nuclear repulsion energy        76.1201415988 Hartrees.
 NAtoms=    6 NActive=    6 NUniq=    6 SFac= 1.00D+00 NAtFMM=   60 NAOKFM=F Big=F
 Integral buffers will be    131072 words long.
 Raffenetti 1 integral format.
 Two-electron integral symmetry is turned on.
 One-electron integrals computed using PRISM.
 NBasis=    22 RedAO= T EigKep=  3.07D-01  NBF=    22
 NBsUse=    22 1.00D-06 EigRej= -1.00D+00 NBFU=    22
 ExpMin= 1.69D-01 ExpMax= 5.33D+02 ExpMxC= 5.33D+02 IAcc=1 IRadAn=         1 AccDes= 0.00D+00
 Harris functional with IExCor=  205 and IRadAn=       1 diagonalized for initial guess.
 HarFok:  IExCor=  205 AccDes= 0.00D+00 IRadAn=         1 IDoV= 1 UseB2=F ITyADJ=14
 ICtDFT=  3500011 ScaDFX=  1.000000  1.000000  1.000000  1.000000
 FoFCou: FMM=F IPFlag=           0 FMFlag=      100000 FMFlg1=           0
         NFxFlg=           0 DoJE=T BraDBF=F KetDBF=T FulRan=T
         wScrn=  0.000000 ICntrl=     500 IOpCl=  0 I1Cent=   200000004 NGrid=           0
         NMat0=    1 NMatS0=      1 NMatT0=    0 NMatD0=    1 NMtDS0=    0 NMtDT0=    0
 Petite list used in FoFCou.
 Keep R1 ints in memory in canonical form, NReq=860191.
 Requested convergence on RMS density matrix=1.00D-08 within 128 cycles.
 Requested convergence on MAX density matrix=1.00D-06.
 Requested convergence on             energy=1.00D-06.
 No special actions if energy rises.
 SCF Done:  E(RHF) =  -788.618537463     A.U. after    9 cycles
            NFock=  9  Conv=0.56D-08     -V/T= 2.0118

 **********************************************************************

            Population analysis using the SCF density.

 **********************************************************************

 Orbital symmetries:
       Occupied  (A) (A) (A) (A) (A) (A) (A) (A) (A) (A) (A) (A)
                 (A) (A) (A) (A) (A) (A)
       Virtual   (A) (A) (A) (A)
 The electronic state is 1-A.
 Alpha  occ. eigenvalues --  -90.77912 -90.70006  -8.67943  -8.60683  -6.31188
 Alpha  occ. eigenvalues --   -6.30979  -6.30656  -6.23938  -6.23721  -6.23388
 Alpha  occ. eigenvalues --   -0.92532  -0.87113  -0.52826  -0.49930  -0.41803
 Alpha  occ. eigenvalues --   -0.37490  -0.27986  -0.25172
 Alpha virt. eigenvalues --    0.44979   0.50793   0.52198   0.59010
          Condensed to atoms (all electrons):
               1          2          3          4          5          6
     1  S   15.347132   0.277505   0.277867  -0.010606   0.000223   0.009296
     2  H    0.277505   0.765325  -0.019690   0.000096  -0.000001  -0.000837
     3  H    0.277867  -0.019690   0.763753   0.000108   0.000000  -0.000644
     4  S   -0.010606   0.000096   0.000108  15.459373   0.272283   0.275557
     5  H    0.000223  -0.000001   0.000000   0.272283   0.796630  -0.018805
     6  H    0.009296  -0.000837  -0.000644   0.275557  -0.018805   0.743081
 Mulliken charges:
               1
     1  S    0.098583
     2  H   -0.022398
     3  H   -0.021396
     4  S    0.003189
     5  H   -0.050331
     6  H   -0.007647
 Sum of Mulliken charges =   0.00000
 Mulliken charges with hydrogens summed into heavy atoms:
               1
     1  S    0.054789
     4  S   -0.054789
 Electronic spatial extent (au):  <R**2>=            458.7587
 Charge=              0.0000 electrons
 Dipole moment (field-independent basis, Debye):
    X=              2.0173    Y=             -0.0169    Z=              0.6142  Tot=              2.1088
 Quadrupole moment (field-independent basis, Debye-Ang):
   XX=            -26.5869   YY=            -23.6772   ZZ=            -24.8731
   XY=             -3.1874   XZ=              1.6969   YZ=              0.2409
 Traceless Quadrupole moment (field-independent basis, Debye-Ang):
   XX=             -1.5412   YY=              1.3685   ZZ=              0.1727
   XY=             -3.1874   XZ=              1.6969   YZ=              0.2409
 Octapole moment (field-independent basis, Debye-Ang**2):
  XXX=              6.1531  YYY=             -0.3429  ZZZ=             -0.1113  XYY=              0.4733
  XXY=             -0.0241  XXZ=              2.3933  XZZ=              2.7105  YZZ=              0.0125
  YYZ=              0.0758  XYZ=              1.0533
 Hexadecapole moment (field-independent basis, Debye-Ang**3):
 XXXX=           -477.1333 YYYY=            -34.6806 ZZZZ=            -28.9320 XXXY=            -13.2387
 XXXZ=              6.2457 YYYX=              0.4611 YYYZ=              0.0145 ZZZX=              0.0741
 ZZZY=              0.1261 XXYY=            -81.3351 XXZZ=            -83.7539 YYZZ=            -11.0437
 XXYZ=              0.8041 YYXZ=             -0.1063 ZZXY=             -0.0514
 N-N= 7.612014159880D+01 E-N=-2.027803569505D+03  KE= 7.794315277653D+02
 Calling FoFJK, ICntrl=      2127 FMM=F ISym2X=0 I1Cent= 0 IOpClX= 0 NMat=1 NMatS=1 NMatT=0.
 ***** Axes restored to original set *****
 -------------------------------------------------------------------
 Center     Atomic                   Forces (Hartrees/Bohr)
 Number     Number              X              Y              Z
 -------------------------------------------------------------------
      1       16           0.016881333   -0.000095895    0.000179959
      2        1          -0.000310435    0.000811654    0.000313493
      3        1          -0.000810908    0.000426070   -0.000870028
      4       16          -0.006728827    0.003689241   -0.000159069
      5        1           0.000367737   -0.003834065    0.000477992
      6        1          -0.009398900   -0.000997004    0.000057653
 -------------------------------------------------------------------
 Cartesian Forces:  Max     0.016881333 RMS     0.005004353

 GradGradGradGradGradGradGradGradGradGradGradGradGradGradGradGradGradGrad
 Berny optimization.
 FormGI is forming the generalized inverse of G from B-inverse, IUseBI=4.
 Internal  Forces:  Max     0.015800662 RMS     0.004714920
 Search for a local minimum.
 Step number   1 out of a maximum of   24
 All quantities printed in internal units (Hartrees-Bohrs-Radians)
 Mixed Optimization -- RFO/linear search
 Second derivative matrix not updated -- first step.
 The second derivative matrix:
                          R1        R2        R3        R4        R5
           R1           0.27360
           R2           0.00000   0.27273
           R3           0.00000   0.00000   0.04486
           R4           0.00000   0.00000   0.00000   0.27039
           R5           0.00000   0.00000   0.00000   0.00000   0.26854
           A1           0.00000   0.00000   0.00000   0.00000   0.00000
           A2           0.00000   0.00000   0.00000   0.00000   0.00000
           A3           0.00000   0.00000   0.00000   0.00000   0.00000
           A4           0.00000   0.00000   0.00000   0.00000   0.00000
           A5           0.00000   0.00000   0.00000   0.00000   0.00000
           A6           0.00000   0.00000   0.00000   0.00000   0.00000
           D1           0.00000   0.00000   0.00000   0.00000   0.00000
           D2           0.00000   0.00000   0.00000   0.00000   0.00000
           D3           0.00000   0.00000   0.00000   0.00000   0.00000
                          A1        A2        A3        A4        A5
           A1           0.16000
           A2           0.00000   0.16000
           A3           0.00000   0.00000   0.16000
           A4           0.00000   0.00000   0.00000   0.16000
           A5           0.00000   0.00000   0.00000   0.00000   0.00571
           A6           0.00000   0.00000   0.00000   0.00000   0.00000
           D1           0.00000   0.00000   0.00000   0.00000   0.00000
           D2           0.00000   0.00000   0.00000   0.00000   0.00000
           D3           0.00000   0.00000   0.00000   0.00000   0.00000
                          A6        D1        D2        D3
           A6           0.00571
           D1           0.00000   0.00638
           D2           0.00000   0.00000   0.00230
           D3           0.00000   0.00000   0.00000   0.00230
 ITU=  0
     Eigenvalues ---    0.00230   0.00570   0.00571   0.04486   0.07342
     Eigenvalues ---    0.11431   0.16000   0.16000   0.26854   0.27039
     Eigenvalues ---    0.27273   0.27360
 RFO step:  Lambda=-5.24473227D-03 EMin= 2.30000000D-03
 Linear search not attempted -- first point.
 Maximum step size (   0.300) exceeded in Quadratic search.
    -- Step size scaled by   0.940
 Iteration  1 RMS(Cart)=  0.06363820 RMS(Int)=  0.02575968
 Iteration  2 RMS(Cart)=  0.03032940 RMS(Int)=  0.00003944
 Iteration  3 RMS(Cart)=  0.00004946 RMS(Int)=  0.00001427
 Iteration  4 RMS(Cart)=  0.00000000 RMS(Int)=  0.00001427
 Variable       Old X    -DE/DX   Delta X   Delta X   Delta X     New X
                                 (Linear)    (Quad)   (Total)
    R1        2.51060   0.00029   0.00000   0.00097   0.00097   2.51157
    R2        2.51257  -0.00058   0.00000  -0.00196  -0.00196   2.51061
    R3        4.04105   0.01580   0.00000   0.29645   0.29645   4.33749
    R4        2.51788  -0.00388   0.00000  -0.01323  -0.01323   2.50465
    R5        2.52214   0.00637   0.00000   0.02186   0.02186   2.54401
    A1        1.61247   0.00156   0.00000   0.01228   0.01229   1.62476
    A2        1.72587  -0.00036   0.00000  -0.00200  -0.00196   1.72391
    A3        1.78355  -0.00139   0.00000  -0.00738  -0.00738   1.77617
    A4        1.62184   0.00006   0.00000   0.00033   0.00033   1.62217
    A5        3.14159  -0.00022   0.00000  -0.02318  -0.02318   3.11842
    A6        3.14159   0.00034   0.00000   0.02664   0.02664   3.16824
    D1        1.73874  -0.00012   0.00000   0.00015   0.00011   1.73885
    D2        1.68228  -0.00054   0.00000   0.00756   0.00756   1.68984
    D3       -2.95313   0.00075   0.00000   0.01893   0.01892  -2.93420
         Item               Value     Threshold  Converged?
 Maximum Force            0.015801     0.000450     NO 
 RMS     Force            0.004715     0.000300     NO 
 Maximum Displacement     0.166891     0.001800     NO 
 RMS     Displacement     0.093432     0.001200     NO 
 Predicted change in Energy=-2.850048D-03
 GradGradGradGradGradGradGradGradGradGradGradGradGradGradGradGradGradGrad

                          Input orientation:                          
 ---------------------------------------------------------------------
 Center     Atomic      Atomic             Coordinates (Angstroms)
 Number     Number       Type             X           Y           Z
 ---------------------------------------------------------------------
      1         16           0        1.766342    0.068442   -0.062535
      2          1           0        1.987416    0.124741    1.246807
      3          1           0        2.094679   -1.216840   -0.135445
      4         16           0       -1.871663   -0.061877    0.014915
      5          1           0       -1.971693    1.243830   -0.189561
      6          1           0       -0.526323   -0.035439   -0.026308
 ---------------------------------------------------------------------
                    Distance matrix (angstroms):
                    1          2          3          4          5
     1  S    0.000000
     2  H    1.329067   0.000000
     3  H    1.328560   1.929240   0.000000
     4  S    3.641162   4.055228   4.133813   0.000000
     5  H    3.920533   4.357759   4.753232   1.325401   0.000000
     6  H    2.295303   2.822298   2.877025   1.346231   1.937079
                    6
     6  H    0.000000
 Stoichiometry    H4S2
 Framework group  C1[X(H4S2)]
 Deg. of freedom    12
 Full point group                 C1      NOp   1
 Largest Abelian subgroup         C1      NOp   1
 Largest concise Abelian subgroup C1      NOp   1
                         Standard orientation:                         
 ---------------------------------------------------------------------
 Center     Atomic      Atomic             Coordinates (Angstroms)
 Number     Number       Type             X           Y           Z
 ---------------------------------------------------------------------
      1         16           0        1.768360    0.076606   -0.072048
      2          1           0        1.993091    0.138606    1.236414
      3          1           0        2.107009   -1.206150   -0.142215
      4         16           0       -1.868190   -0.083319    0.017341
      5          1           0       -1.979583    1.220911   -0.190661
      6          1           0       -0.523249   -0.045968   -0.028233
 ---------------------------------------------------------------------
 Rotational constants (GHZ):    100.3361871      2.2353011      2.2198491
 Standard basis: STO-3G (5D, 7F)
 There are    22 symmetry adapted cartesian basis functions of A   symmetry.
 There are    22 symmetry adapted basis functions of A   symmetry.
    22 basis functions,    66 primitive gaussians,    22 cartesian basis functions
    18 alpha electrons       18 beta electrons
       nuclear repulsion energy        73.7619722304 Hartrees.
 NAtoms=    6 NActive=    6 NUniq=    6 SFac= 1.00D+00 NAtFMM=   60 NAOKFM=F Big=F
 Integral buffers will be    131072 words long.
 Raffenetti 1 integral format.
 Two-electron integral symmetry is turned on.
 One-electron integrals computed using PRISM.
 NBasis=    22 RedAO= T EigKep=  3.13D-01  NBF=    22
 NBsUse=    22 1.00D-06 EigRej= -1.00D+00 NBFU=    22
 Initial guess from the checkpoint file:  "h2s_dimer.chk"
 B after Tr=     0.000000    0.000000    0.000000
         Rot=    0.999999    0.001607    0.000260    0.000474 Ang=   0.19 deg.
 ExpMin= 1.69D-01 ExpMax= 5.33D+02 ExpMxC= 5.33D+02 IAcc=1 IRadAn=         1 AccDes= 0.00D+00
 Harris functional with IExCor=  205 and IRadAn=       1 diagonalized for initial guess.
 HarFok:  IExCor=  205 AccDes= 0.00D+00 IRadAn=         1 IDoV= 1 UseB2=F ITyADJ=14
 ICtDFT=  3500011 ScaDFX=  1.000000  1.000000  1.000000  1.000000
 FoFCou: FMM=F IPFlag=           0 FMFlag=      100000 FMFlg1=           0
         NFxFlg=           0 DoJE=T BraDBF=F KetDBF=T FulRan=T
         wScrn=  0.000000 ICntrl=     500 IOpCl=  0 I1Cent=   200000004 NGrid=           0
         NMat0=    1 NMatS0=      1 NMatT0=    0 NMatD0=    1 NMtDS0=    0 NMtDT0=    0
 Petite list used in FoFCou.
 Keep R1 ints in memory in canonical form, NReq=860119.
 Requested convergence on RMS density matrix=1.00D-08 within 128 cycles.
 Requested convergence on MAX density matrix=1.00D-06.
 Requested convergence on             energy=1.00D-06.
 No special actions if energy rises.
 SCF Done:  E(RHF) =  -788.621870798     A.U. after    9 cycles
            NFock=  9  Conv=0.23D-08     -V/T= 2.0118
 Calling FoFJK, ICntrl=      2127 FMM=F ISym2X=0 I1Cent= 0 IOpClX= 0 NMat=1 NMatS=1 NMatT=0.
 ***** Axes restored to original set *****
 -------------------------------------------------------------------
 Center     Atomic                   Forces (Hartrees/Bohr)
 Number     Number              X              Y              Z
 -------------------------------------------------------------------
      1       16           0.007396645    0.001381433   -0.000554717
      2        1           0.000125970   -0.000757089   -0.000234081
      3        1          -0.000127846   -0.000149677    0.000685144
      4       16           0.006950354   -0.001999402    0.000217391
      5        1           0.000179912    0.001781986   -0.000360058
      6        1          -0.014525035   -0.000257251    0.000246320
 -------------------------------------------------------------------
 Cartesian Forces:  Max     0.014525035 RMS     0.004248344

 GradGradGradGradGradGradGradGradGradGradGradGradGradGradGradGradGradGrad
 Berny optimization.
 Using GEDIIS/GDIIS optimizer.
 FormGI is forming the generalized inverse of G from B-inverse, IUseBI=4.
 Internal  Forces:  Max     0.007409337 RMS     0.002830979
 Search for a local minimum.
 Step number   2 out of a maximum of   24
 All quantities printed in internal units (Hartrees-Bohrs-Radians)
 Mixed Optimization -- RFO/linear search
 Update second derivatives using D2CorX and points    1    2
 DE= -3.33D-03 DEPred=-2.85D-03 R= 1.17D+00
 TightC=F SS=  1.41D+00  RLast= 3.01D-01 DXNew= 5.0454D-01 9.0205D-01
 Trust test= 1.17D+00 RLast= 3.01D-01 DXMaxT set to 5.05D-01
 The second derivative matrix:
                          R1        R2        R3        R4        R5
           R1           0.27367
           R2          -0.00008   0.27280
           R3           0.00067  -0.00017   0.02638
           R4          -0.00080   0.00081  -0.00482   0.27831
           R5           0.00206  -0.00226   0.01986  -0.02108   0.32236
           A1           0.00037  -0.00036   0.00152  -0.00359   0.00977
           A2          -0.00008   0.00008  -0.00059   0.00081  -0.00212
           A3          -0.00007   0.00002   0.00152   0.00051  -0.00196
           A4           0.00015  -0.00018   0.00228  -0.00161   0.00385
           A5          -0.00005   0.00005  -0.00046   0.00048  -0.00123
           A6           0.00005  -0.00006   0.00047  -0.00052   0.00133
           D1           0.00000   0.00000  -0.00005   0.00003  -0.00008
           D2          -0.00023   0.00028  -0.00368   0.00247  -0.00585
           D3           0.00023  -0.00028   0.00359  -0.00248   0.00593
                          A1        A2        A3        A4        A5
           A1           0.16160
           A2          -0.00037   0.16008
           A3          -0.00018   0.00006   0.15988
           A4           0.00077  -0.00016  -0.00021   0.16025
           A5          -0.00022   0.00005   0.00005  -0.00009   0.00574
           A6           0.00024  -0.00005  -0.00005   0.00010  -0.00003
           D1          -0.00002   0.00000   0.00000   0.00000   0.00000
           D2          -0.00119   0.00024   0.00035  -0.00037   0.00013
           D3           0.00119  -0.00024  -0.00034   0.00038  -0.00014
                          A6        D1        D2        D3
           A6           0.00574
           D1           0.00000   0.00638
           D2          -0.00015   0.00001   0.00285
           D3           0.00015  -0.00001  -0.00056   0.00288
 ITU=  1  0
 Use linear search instead of GDIIS.
     Eigenvalues ---    0.00230   0.00570   0.00575   0.02482   0.07379
     Eigenvalues ---    0.11628   0.15979   0.16030   0.26988   0.27271
     Eigenvalues ---    0.27359   0.33341
 RFO step:  Lambda=-3.66040067D-03 EMin= 2.29962437D-03
 Quartic linear search produced a step of  1.55007.
 Iteration  1 RMS(Cart)=  0.06558866 RMS(Int)=  0.11302893
 Iteration  2 RMS(Cart)=  0.06251931 RMS(Int)=  0.05954794
 Iteration  3 RMS(Cart)=  0.06320145 RMS(Int)=  0.00609722
 Iteration  4 RMS(Cart)=  0.00731136 RMS(Int)=  0.00007630
 Iteration  5 RMS(Cart)=  0.00000276 RMS(Int)=  0.00007628
 Iteration  6 RMS(Cart)=  0.00000000 RMS(Int)=  0.00007628
 Variable       Old X    -DE/DX   Delta X   Delta X   Delta X     New X
                                 (Linear)    (Quad)   (Total)
    R1        2.51157  -0.00024   0.00150  -0.00328  -0.00177   2.50980
    R2        2.51061   0.00008  -0.00303   0.00292  -0.00012   2.51050
    R3        4.33749   0.00741   0.45952   0.16399   0.62351   4.96100
    R4        2.50465   0.00180  -0.02051   0.03144   0.01093   2.51557
    R5        2.54401  -0.00713   0.03389  -0.09012  -0.05623   2.48778
    A1        1.62476  -0.00116   0.01905  -0.03984  -0.02094   1.60382
    A2        1.72391   0.00020  -0.00304   0.00200  -0.00116   1.72275
    A3        1.77617  -0.00060  -0.01144  -0.00266  -0.01412   1.76205
    A4        1.62217  -0.00080   0.00051  -0.01247  -0.01196   1.61021
    A5        3.11842   0.00008  -0.03593   0.00017  -0.03575   3.08267
    A6        3.16824   0.00001   0.04130   0.04545   0.08676   3.25499
    D1        1.73885  -0.00011   0.00017  -0.00697  -0.00670   1.73215
    D2        1.68984   0.00072   0.01172   0.09589   0.10749   1.79733
    D3       -2.93420  -0.00055   0.02933   0.05242   0.08188  -2.85232
         Item               Value     Threshold  Converged?
 Maximum Force            0.007409     0.000450     NO 
 RMS     Force            0.002831     0.000300     NO 
 Maximum Displacement     0.339774     0.001800     NO 
 RMS     Displacement     0.182759     0.001200     NO 
 Predicted change in Energy=-1.319964D-04
 GradGradGradGradGradGradGradGradGradGradGradGradGradGradGradGradGradGrad

                          Input orientation:                          
 ---------------------------------------------------------------------
 Center     Atomic      Atomic             Coordinates (Angstroms)
 Number     Number       Type             X           Y           Z
 ---------------------------------------------------------------------
      1         16           0        1.916119    0.070526   -0.042404
      2          1           0        2.116623    0.071115    1.270502
      3          1           0        2.230655   -1.216929   -0.134235
      4         16           0       -2.019094   -0.022155    0.046324
      5          1           0       -2.059422    1.275356   -0.248444
      6          1           0       -0.706124   -0.055056   -0.043870
 ---------------------------------------------------------------------
                    Distance matrix (angstroms):
                    1          2          3          4          5
     1  S    0.000000
     2  H    1.328128   0.000000
     3  H    1.328498   1.909279   0.000000
     4  S    3.937305   4.314101   4.418196   0.000000
     5  H    4.159206   4.603992   4.962791   1.331183   0.000000
     6  H    2.625249   3.116311   3.159555   1.316476   1.908733
                    6
     6  H    0.000000
 Stoichiometry    H4S2
 Framework group  C1[X(H4S2)]
 Deg. of freedom    12
 Full point group                 C1      NOp   1
 Largest Abelian subgroup         C1      NOp   1
 Largest concise Abelian subgroup C1      NOp   1
                         Standard orientation:                         
 ---------------------------------------------------------------------
 Center     Atomic      Atomic             Coordinates (Angstroms)
 Number     Number       Type             X           Y           Z
 ---------------------------------------------------------------------
      1         16           0        1.916817    0.085826   -0.061225
      2          1           0        2.118629   -0.042398    1.245204
      3          1           0        2.252878   -1.180360   -0.282004
      4         16           0       -2.016187   -0.081592    0.015068
      5          1           0       -2.078644    1.238140   -0.147589
      6          1           0       -0.702942   -0.083123   -0.077095
 ---------------------------------------------------------------------
 Rotational constants (GHZ):     99.6880210      1.9158646      1.9047713
 Standard basis: STO-3G (5D, 7F)
 There are    22 symmetry adapted cartesian basis functions of A   symmetry.
 There are    22 symmetry adapted basis functions of A   symmetry.
    22 basis functions,    66 primitive gaussians,    22 cartesian basis functions
    18 alpha electrons       18 beta electrons
       nuclear repulsion energy        70.1997519766 Hartrees.
 NAtoms=    6 NActive=    6 NUniq=    6 SFac= 1.00D+00 NAtFMM=   60 NAOKFM=F Big=F
 Integral buffers will be    131072 words long.
 Raffenetti 1 integral format.
 Two-electron integral symmetry is turned on.
 One-electron integrals computed using PRISM.
 NBasis=    22 RedAO= T EigKep=  3.13D-01  NBF=    22
 NBsUse=    22 1.00D-06 EigRej= -1.00D+00 NBFU=    22
 Initial guess from the checkpoint file:  "h2s_dimer.chk"
 B after Tr=     0.000000    0.000000    0.000000
         Rot=    0.998770   -0.049568    0.000352    0.000841 Ang=  -5.68 deg.
 ExpMin= 1.69D-01 ExpMax= 5.33D+02 ExpMxC= 5.33D+02 IAcc=1 IRadAn=         1 AccDes= 0.00D+00
 Harris functional with IExCor=  205 and IRadAn=       1 diagonalized for initial guess.
 HarFok:  IExCor=  205 AccDes= 0.00D+00 IRadAn=         1 IDoV= 1 UseB2=F ITyADJ=14
 ICtDFT=  3500011 ScaDFX=  1.000000  1.000000  1.000000  1.000000
 FoFCou: FMM=F IPFlag=           0 FMFlag=      100000 FMFlg1=           0
         NFxFlg=           0 DoJE=T BraDBF=F KetDBF=T FulRan=T
         wScrn=  0.000000 ICntrl=     500 IOpCl=  0 I1Cent=   200000004 NGrid=           0
         NMat0=    1 NMatS0=      1 NMatT0=    0 NMatD0=    1 NMtDS0=    0 NMtDT0=    0
 Petite list used in FoFCou.
 Keep R1 ints in memory in canonical form, NReq=860031.
 Requested convergence on RMS density matrix=1.00D-08 within 128 cycles.
 Requested convergence on MAX density matrix=1.00D-06.
 Requested convergence on             energy=1.00D-06.
 No special actions if energy rises.
 SCF Done:  E(RHF) =  -788.623970869     A.U. after    9 cycles
            NFock=  9  Conv=0.33D-08     -V/T= 2.0118
 Calling FoFJK, ICntrl=      2127 FMM=F ISym2X=0 I1Cent= 0 IOpClX= 0 NMat=1 NMatS=1 NMatT=0.
 ***** Axes restored to original set *****
 -------------------------------------------------------------------
 Center     Atomic                   Forces (Hartrees/Bohr)
 Number     Number              X              Y              Z
 -------------------------------------------------------------------
      1       16           0.001525841   -0.001338753    0.001014318
      2        1          -0.000236758    0.001508925    0.000563481
      3        1          -0.000249666   -0.000128915   -0.001586455
      4       16          -0.010139185    0.003440937   -0.000101508
      5        1          -0.000808464   -0.002357443    0.000561629
      6        1           0.009908233   -0.001124751   -0.000451465
 -------------------------------------------------------------------
 Cartesian Forces:  Max     0.010139185 RMS     0.003584050

 GradGradGradGradGradGradGradGradGradGradGradGradGradGradGradGradGradGrad
 Berny optimization.
 Using GEDIIS/GDIIS optimizer.
 FormGI is forming the generalized inverse of G from B-inverse, IUseBI=4.
 Internal  Forces:  Max     0.010980342 RMS     0.003195425
 Search for a local minimum.
 Step number   3 out of a maximum of   24
 All quantities printed in internal units (Hartrees-Bohrs-Radians)
 Mixed Optimization -- RFO/linear search
 Update second derivatives using D2CorX and points    2    3
 DE= -2.10D-03 DEPred=-1.32D-04 R= 1.59D+01
 TightC=F SS=  1.41D+00  RLast= 6.48D-01 DXNew= 8.4853D-01 1.9441D+00
 Trust test= 1.59D+01 RLast= 6.48D-01 DXMaxT set to 8.49D-01
 The second derivative matrix:
                          R1        R2        R3        R4        R5
           R1           0.27378
           R2          -0.00007   0.27280
           R3           0.00004  -0.00030   0.01109
           R4          -0.00138   0.00073  -0.00170   0.28151
           R5           0.00458  -0.00191   0.00720  -0.03481   0.38122
           A1           0.00085  -0.00028   0.00156  -0.00620   0.02088
           A2          -0.00016   0.00007   0.00067   0.00128  -0.00415
           A3          -0.00005   0.00003   0.00295   0.00042  -0.00165
           A4           0.00058  -0.00013  -0.00028  -0.00394   0.01387
           A5          -0.00004   0.00005   0.00004   0.00045  -0.00112
           A6           0.00005  -0.00006  -0.00045  -0.00051   0.00134
           D1           0.00004   0.00001  -0.00030  -0.00019   0.00088
           D2          -0.00055   0.00025   0.00125   0.00426  -0.01368
           D3           0.00055  -0.00025  -0.00181  -0.00426   0.01370
                          A1        A2        A3        A4        A5
           A1           0.16337
           A2          -0.00086   0.16011
           A3          -0.00032  -0.00002   0.15975
           A4           0.00271  -0.00049  -0.00013   0.16194
           A5          -0.00027   0.00002   0.00000  -0.00006   0.00573
           A6           0.00037  -0.00001   0.00003   0.00008   0.00000
           D1           0.00017  -0.00003   0.00001   0.00016   0.00000
           D2          -0.00310   0.00036   0.00003  -0.00163   0.00002
           D3           0.00316  -0.00034   0.00001   0.00162  -0.00001
                          A6        D1        D2        D3
           A6           0.00570
           D1           0.00000   0.00640
           D2           0.00002  -0.00011   0.00330
           D3          -0.00004   0.00011  -0.00092   0.00313
 ITU=  1  1  0
 Use linear search instead of GDIIS.
     Eigenvalues ---    0.00227   0.00567   0.00571   0.01095   0.07519
     Eigenvalues ---    0.11713   0.15983   0.16113   0.27056   0.27278
     Eigenvalues ---    0.27359   0.39667
 RFO step:  Lambda=-4.44866657D-04 EMin= 2.27336476D-03
 Quartic linear search produced a step of -0.03722.
 Iteration  1 RMS(Cart)=  0.04315248 RMS(Int)=  0.00051749
 Iteration  2 RMS(Cart)=  0.00061544 RMS(Int)=  0.00003674
 Iteration  3 RMS(Cart)=  0.00000034 RMS(Int)=  0.00003674
 Variable       Old X    -DE/DX   Delta X   Delta X   Delta X     New X
                                 (Linear)    (Quad)   (Total)
    R1        2.50980   0.00052   0.00007   0.00128   0.00134   2.51114
    R2        2.51050   0.00018   0.00000   0.00092   0.00093   2.51143
    R3        4.96100   0.00104  -0.02321   0.08607   0.06286   5.02386
    R4        2.51557  -0.00240  -0.00041  -0.00390  -0.00430   2.51127
    R5        2.48778   0.01098   0.00209   0.02331   0.02541   2.51319
    A1        1.60382   0.00259   0.00078   0.01650   0.01736   1.62118
    A2        1.72275  -0.00031   0.00004   0.00078   0.00084   1.72358
    A3        1.76205  -0.00030   0.00053  -0.00236  -0.00182   1.76023
    A4        1.61021   0.00223   0.00045   0.01069   0.01114   1.62135
    A5        3.08267   0.00019   0.00133   0.02765   0.02898   3.11165
    A6        3.25499  -0.00012  -0.00323  -0.02836  -0.03159   3.22340
    D1        1.73215   0.00018   0.00025   0.00397   0.00423   1.73638
    D2        1.79733  -0.00124  -0.00400   0.01241   0.00848   1.80581
    D3       -2.85232   0.00133  -0.00305   0.02928   0.02615  -2.82617
         Item               Value     Threshold  Converged?
 Maximum Force            0.010980     0.000450     NO 
 RMS     Force            0.003195     0.000300     NO 
 Maximum Displacement     0.099999     0.001800     NO 
 RMS     Displacement     0.043195     0.001200     NO 
 Predicted change in Energy=-2.351964D-04
 GradGradGradGradGradGradGradGradGradGradGradGradGradGradGradGradGradGrad

                          Input orientation:                          
 ---------------------------------------------------------------------
 Center     Atomic      Atomic             Coordinates (Angstroms)
 Number     Number       Type             X           Y           Z
 ---------------------------------------------------------------------
      1         16           0        1.946908    0.062683   -0.032608
      2          1           0        2.151164    0.063610    1.280440
      3          1           0        2.241264   -1.228396   -0.145217
      4         16           0       -2.038186   -0.019079    0.039618
      5          1           0       -2.112339    1.272161   -0.265658
      6          1           0       -0.710052   -0.028122   -0.028703
 ---------------------------------------------------------------------
                    Distance matrix (angstroms):
                    1          2          3          4          5
     1  S    0.000000
     2  H    1.328840   0.000000
     3  H    1.328989   1.926108   0.000000
     4  S    3.986587   4.370026   4.450877   0.000000
     5  H    4.242008   4.693450   5.022066   1.328907   0.000000
     6  H    2.658514   3.147829   3.188181   1.329921   1.926991
                    6
     6  H    0.000000
 Stoichiometry    H4S2
 Framework group  C1[X(H4S2)]
 Deg. of freedom    12
 Full point group                 C1      NOp   1
 Largest Abelian subgroup         C1      NOp   1
 Largest concise Abelian subgroup C1      NOp   1
                         Standard orientation:                         
 ---------------------------------------------------------------------
 Center     Atomic      Atomic             Coordinates (Angstroms)
 Number     Number       Type             X           Y           Z
 ---------------------------------------------------------------------
      1         16           0        1.942367    0.085110   -0.061264
      2          1           0        2.153150   -0.030548    1.245644
      3          1           0        2.261354   -1.184033   -0.293076
      4         16           0       -2.039953   -0.082390    0.015876
      5          1           0       -2.140881    1.229702   -0.169114
      6          1           0       -0.712255   -0.058632   -0.057233
 ---------------------------------------------------------------------
 Rotational constants (GHZ):     99.7651186      1.8683125      1.8579572
 Standard basis: STO-3G (5D, 7F)
 There are    22 symmetry adapted cartesian basis functions of A   symmetry.
 There are    22 symmetry adapted basis functions of A   symmetry.
    22 basis functions,    66 primitive gaussians,    22 cartesian basis functions
    18 alpha electrons       18 beta electrons
       nuclear repulsion energy        69.5835447194 Hartrees.
 NAtoms=    6 NActive=    6 NUniq=    6 SFac= 1.00D+00 NAtFMM=   60 NAOKFM=F Big=F
 Integral buffers will be    131072 words long.
 Raffenetti 1 integral format.
 Two-electron integral symmetry is turned on.
 One-electron integrals computed using PRISM.
 NBasis=    22 RedAO= T EigKep=  3.17D-01  NBF=    22
 NBsUse=    22 1.00D-06 EigRej= -1.00D+00 NBFU=    22
 Initial guess from the checkpoint file:  "h2s_dimer.chk"
 B after Tr=     0.000000    0.000000    0.000000
         Rot=    0.999995    0.003282   -0.000142   -0.000149 Ang=   0.38 deg.
 ExpMin= 1.69D-01 ExpMax= 5.33D+02 ExpMxC= 5.33D+02 IAcc=1 IRadAn=         1 AccDes= 0.00D+00
 Harris functional with IExCor=  205 and IRadAn=       1 diagonalized for initial guess.
 HarFok:  IExCor=  205 AccDes= 0.00D+00 IRadAn=         1 IDoV= 1 UseB2=F ITyADJ=14
 ICtDFT=  3500011 ScaDFX=  1.000000  1.000000  1.000000  1.000000
 FoFCou: FMM=F IPFlag=           0 FMFlag=      100000 FMFlg1=           0
         NFxFlg=           0 DoJE=T BraDBF=F KetDBF=T FulRan=T
         wScrn=  0.000000 ICntrl=     500 IOpCl=  0 I1Cent=   200000004 NGrid=           0
         NMat0=    1 NMatS0=      1 NMatT0=    0 NMatD0=    1 NMtDS0=    0 NMtDT0=    0
 Petite list used in FoFCou.
 Keep R1 ints in memory in canonical form, NReq=860001.
 Requested convergence on RMS density matrix=1.00D-08 within 128 cycles.
 Requested convergence on MAX density matrix=1.00D-06.
 Requested convergence on             energy=1.00D-06.
 No special actions if energy rises.
 SCF Done:  E(RHF) =  -788.624205046     A.U. after    8 cycles
            NFock=  8  Conv=0.57D-08     -V/T= 2.0119
 Calling FoFJK, ICntrl=      2127 FMM=F ISym2X=0 I1Cent= 0 IOpClX= 0 NMat=1 NMatS=1 NMatT=0.
 ***** Axes restored to original set *****
 -------------------------------------------------------------------
 Center     Atomic                   Forces (Hartrees/Bohr)
 Number     Number              X              Y              Z
 -------------------------------------------------------------------
      1       16           0.000464339    0.000287994   -0.000334115
      2        1           0.000176775   -0.000529923   -0.000169068
      3        1          -0.000016085    0.000277606    0.000523885
      4       16          -0.000673168    0.000089621    0.000012866
      5        1           0.000528285   -0.000577117    0.000069367
      6        1          -0.000480146    0.000451819   -0.000102934
 -------------------------------------------------------------------
 Cartesian Forces:  Max     0.000673168 RMS     0.000381969

 GradGradGradGradGradGradGradGradGradGradGradGradGradGradGradGradGradGrad
 Berny optimization.
 Using GEDIIS/GDIIS optimizer.
 FormGI is forming the generalized inverse of G from B-inverse, IUseBI=4.
 Internal  Forces:  Max     0.001242829 RMS     0.000512674
 Search for a local minimum.
 Step number   4 out of a maximum of   24
 All quantities printed in internal units (Hartrees-Bohrs-Radians)
 Mixed Optimization -- En-DIIS/RFO-DIIS
 Update second derivatives using D2CorX and points    3    4
 DE= -2.34D-04 DEPred=-2.35D-04 R= 9.96D-01
 TightC=F SS=  1.41D+00  RLast= 8.75D-02 DXNew= 1.4270D+00 2.6255D-01
 Trust test= 9.96D-01 RLast= 8.75D-02 DXMaxT set to 8.49D-01
 The second derivative matrix:
                          R1        R2        R3        R4        R5
           R1           0.27416
           R2           0.00046   0.27328
           R3          -0.00037  -0.00019   0.00974
           R4          -0.00125  -0.00031   0.00137   0.27586
           R5           0.00787   0.00576  -0.00437  -0.01955   0.37527
           A1           0.00187   0.00216  -0.00222  -0.00111   0.01807
           A2          -0.00102  -0.00054   0.00008   0.00368  -0.01837
           A3          -0.00028  -0.00022   0.00300   0.00071  -0.00461
           A4           0.00313   0.00283  -0.00145  -0.00594   0.04348
           A5           0.00013   0.00025  -0.00002   0.00027   0.00102
           A6           0.00020  -0.00003  -0.00015  -0.00128   0.00468
           D1           0.00018   0.00013  -0.00026  -0.00048   0.00296
           D2          -0.00269  -0.00151   0.00036   0.00926  -0.04669
           D3           0.00261   0.00148  -0.00102  -0.00896   0.04527
                          A1        A2        A3        A4        A5
           A1           0.16218
           A2          -0.00543   0.16078
           A3          -0.00126   0.00034   0.15987
           A4           0.01203  -0.00493  -0.00153   0.17783
           A5           0.00040  -0.00026  -0.00009   0.00101   0.00580
           A6           0.00145   0.00004  -0.00001   0.00067   0.00003
           D1           0.00084  -0.00018  -0.00005   0.00093   0.00006
           D2          -0.01366   0.00250   0.00099  -0.01322  -0.00073
           D3           0.01326  -0.00247  -0.00092   0.01288   0.00072
                          A6        D1        D2        D3
           A6           0.00564
           D1           0.00000   0.00643
           D2           0.00000  -0.00056   0.00965
           D3          -0.00001   0.00055  -0.00718   0.00930
 ITU=  1  1  1  0
 Use linear search instead of GDIIS.
     Eigenvalues ---    0.00226   0.00561   0.00572   0.00963   0.07583
     Eigenvalues ---    0.12309   0.15974   0.17055   0.27172   0.27336
     Eigenvalues ---    0.27367   0.40205
 RFO step:  Lambda=-6.35958734D-05 EMin= 2.25697436D-03
 Quartic linear search produced a step of  0.02885.
 Iteration  1 RMS(Cart)=  0.02697494 RMS(Int)=  0.00018606
 Iteration  2 RMS(Cart)=  0.00019883 RMS(Int)=  0.00000712
 Iteration  3 RMS(Cart)=  0.00000002 RMS(Int)=  0.00000712
 Variable       Old X    -DE/DX   Delta X   Delta X   Delta X     New X
                                 (Linear)    (Quad)   (Total)
    R1        2.51114  -0.00014   0.00004  -0.00038  -0.00034   2.51081
    R2        2.51143  -0.00032   0.00003  -0.00106  -0.00104   2.51039
    R3        5.02386   0.00063   0.00181   0.06385   0.06567   5.08953
    R4        2.51127  -0.00061  -0.00012  -0.00263  -0.00276   2.50851
    R5        2.51319   0.00015   0.00073   0.00229   0.00302   2.51621
    A1        1.62118  -0.00089   0.00050  -0.00631  -0.00579   1.61538
    A2        1.72358   0.00023   0.00002   0.00135   0.00137   1.72496
    A3        1.76023  -0.00002  -0.00005  -0.00165  -0.00170   1.75853
    A4        1.62135  -0.00124   0.00032  -0.00667  -0.00635   1.61500
    A5        3.11165  -0.00003   0.00084  -0.00019   0.00065   3.11230
    A6        3.22340  -0.00009  -0.00091  -0.01172  -0.01263   3.21077
    D1        1.73638   0.00006   0.00012  -0.00003   0.00010   1.73648
    D2        1.80581   0.00048   0.00024   0.03381   0.03407   1.83988
    D3       -2.82617  -0.00038   0.00075   0.02800   0.02874  -2.79743
         Item               Value     Threshold  Converged?
 Maximum Force            0.001243     0.000450     NO 
 RMS     Force            0.000513     0.000300     NO 
 Maximum Displacement     0.042667     0.001800     NO 
 RMS     Displacement     0.026935     0.001200     NO 
 Predicted change in Energy=-3.193924D-05
 GradGradGradGradGradGradGradGradGradGradGradGradGradGradGradGradGradGrad

                          Input orientation:                          
 ---------------------------------------------------------------------
 Center     Atomic      Atomic             Coordinates (Angstroms)
 Number     Number       Type             X           Y           Z
 ---------------------------------------------------------------------
      1         16           0        1.963147    0.065960   -0.027553
      2          1           0        2.173742    0.048578    1.284198
      3          1           0        2.253221   -1.224514   -0.151195
      4         16           0       -2.058766   -0.014085    0.044493
      5          1           0       -2.123962    1.269751   -0.286613
      6          1           0       -0.728625   -0.022832   -0.015457
 ---------------------------------------------------------------------
                    Distance matrix (angstroms):
                    1          2          3          4          5
     1  S    0.000000
     2  H    1.328662   0.000000
     3  H    1.328440   1.920268   0.000000
     4  S    4.023355   4.410774   4.482931   0.000000
     5  H    4.268569   4.735924   5.039785   1.327447   0.000000
     6  H    2.693263   3.180870   3.217743   1.331520   1.921266
                    6
     6  H    0.000000
 Stoichiometry    H4S2
 Framework group  C1[X(H4S2)]
 Deg. of freedom    12
 Full point group                 C1      NOp   1
 Largest Abelian subgroup         C1      NOp   1
 Largest concise Abelian subgroup C1      NOp   1
                         Standard orientation:                         
 ---------------------------------------------------------------------
 Center     Atomic      Atomic             Coordinates (Angstroms)
 Number     Number       Type             X           Y           Z
 ---------------------------------------------------------------------
      1         16           0        1.960386    0.087551   -0.058130
      2          1           0        2.178105   -0.085215    1.241136
      3          1           0        2.275338   -1.172091   -0.338952
      4         16           0       -2.058721   -0.082342    0.014671
      5          1           0       -2.151076    1.230676   -0.157289
      6          1           0       -0.728998   -0.056705   -0.049552
 ---------------------------------------------------------------------
 Rotational constants (GHZ):     99.8936412      1.8347221      1.8248201
 Standard basis: STO-3G (5D, 7F)
 There are    22 symmetry adapted cartesian basis functions of A   symmetry.
 There are    22 symmetry adapted basis functions of A   symmetry.
    22 basis functions,    66 primitive gaussians,    22 cartesian basis functions
    18 alpha electrons       18 beta electrons
       nuclear repulsion energy        69.1878426962 Hartrees.
 NAtoms=    6 NActive=    6 NUniq=    6 SFac= 1.00D+00 NAtFMM=   60 NAOKFM=F Big=F
 Integral buffers will be    131072 words long.
 Raffenetti 1 integral format.
 Two-electron integral symmetry is turned on.
 One-electron integrals computed using PRISM.
 NBasis=    22 RedAO= T EigKep=  3.17D-01  NBF=    22
 NBsUse=    22 1.00D-06 EigRej= -1.00D+00 NBFU=    22
 Initial guess from the checkpoint file:  "h2s_dimer.chk"
 B after Tr=     0.000000    0.000000    0.000000
         Rot=    0.999884   -0.015256   -0.000051    0.000138 Ang=  -1.75 deg.
 ExpMin= 1.69D-01 ExpMax= 5.33D+02 ExpMxC= 5.33D+02 IAcc=1 IRadAn=         1 AccDes= 0.00D+00
 Harris functional with IExCor=  205 and IRadAn=       1 diagonalized for initial guess.
 HarFok:  IExCor=  205 AccDes= 0.00D+00 IRadAn=         1 IDoV= 1 UseB2=F ITyADJ=14
 ICtDFT=  3500011 ScaDFX=  1.000000  1.000000  1.000000  1.000000
 FoFCou: FMM=F IPFlag=           0 FMFlag=      100000 FMFlg1=           0
         NFxFlg=           0 DoJE=T BraDBF=F KetDBF=T FulRan=T
         wScrn=  0.000000 ICntrl=     500 IOpCl=  0 I1Cent=   200000004 NGrid=           0
         NMat0=    1 NMatS0=      1 NMatT0=    0 NMatD0=    1 NMtDS0=    0 NMtDT0=    0
 Petite list used in FoFCou.
 Keep R1 ints in memory in canonical form, NReq=859971.
 Requested convergence on RMS density matrix=1.00D-08 within 128 cycles.
 Requested convergence on MAX density matrix=1.00D-06.
 Requested convergence on             energy=1.00D-06.
 No special actions if energy rises.
 SCF Done:  E(RHF) =  -788.624245091     A.U. after    8 cycles
            NFock=  8  Conv=0.50D-08     -V/T= 2.0119
 Calling FoFJK, ICntrl=      2127 FMM=F ISym2X=0 I1Cent= 0 IOpClX= 0 NMat=1 NMatS=1 NMatT=0.
 ***** Axes restored to original set *****
 -------------------------------------------------------------------
 Center     Atomic                   Forces (Hartrees/Bohr)
 Number     Number              X              Y              Z
 -------------------------------------------------------------------
      1       16           0.000347716    0.000014831    0.000197549
      2        1           0.000047182    0.000136396    0.000017800
      3        1          -0.000019528   -0.000125134   -0.000187010
      4       16           0.001496078   -0.000325811    0.000030300
      5        1          -0.000266661    0.000551783   -0.000169336
      6        1          -0.001604786   -0.000252066    0.000110697
 -------------------------------------------------------------------
 Cartesian Forces:  Max     0.001604786 RMS     0.000559415

 GradGradGradGradGradGradGradGradGradGradGradGradGradGradGradGradGradGrad
 Berny optimization.
 Using GEDIIS/GDIIS optimizer.
 FormGI is forming the generalized inverse of G from B-inverse, IUseBI=4.
 Internal  Forces:  Max     0.001232430 RMS     0.000422760
 Search for a local minimum.
 Step number   5 out of a maximum of   24
 All quantities printed in internal units (Hartrees-Bohrs-Radians)
 Mixed Optimization -- En-DIIS/RFO-DIIS
 Swapping is turned off.
 Update second derivatives using D2CorX and points    3    4    5
 DE= -4.00D-05 DEPred=-3.19D-05 R= 1.25D+00
 TightC=F SS=  1.41D+00  RLast= 8.10D-02 DXNew= 1.4270D+00 2.4289D-01
 Trust test= 1.25D+00 RLast= 8.10D-02 DXMaxT set to 8.49D-01
 The second derivative matrix:
                          R1        R2        R3        R4        R5
           R1           0.27429
           R2           0.00102   0.27569
           R3          -0.00015   0.00024   0.00477
           R4           0.00076   0.00833   0.00145   0.30683
           R5           0.00422  -0.01021  -0.00247  -0.07678   0.48161
           A1           0.00257   0.00537   0.00215   0.01125  -0.00573
           A2          -0.00105  -0.00077  -0.00111   0.00260  -0.01601
           A3          -0.00049  -0.00098   0.00412  -0.00165  -0.00077
           A4           0.00538   0.01227  -0.00075   0.02754  -0.01765
           A5           0.00014   0.00025  -0.00010   0.00024   0.00115
           A6           0.00023   0.00014   0.00031  -0.00055   0.00316
           D1           0.00025   0.00044  -0.00039   0.00057   0.00111
           D2          -0.00363  -0.00520   0.00274  -0.00305  -0.02533
           D3           0.00366   0.00554  -0.00433   0.00440   0.02235
                          A1        A2        A3        A4        A5
           A1           0.16381
           A2          -0.00490   0.16055
           A3          -0.00322   0.00070   0.15980
           A4           0.02545  -0.00604  -0.00426   0.21465
           A5           0.00049  -0.00028  -0.00007   0.00102   0.00580
           A6           0.00135   0.00012  -0.00017   0.00141   0.00004
           D1           0.00139  -0.00025  -0.00010   0.00211   0.00005
           D2          -0.02092   0.00355   0.00140  -0.02712  -0.00068
           D3           0.02176  -0.00377  -0.00119   0.02803   0.00066
                          A6        D1        D2        D3
           A6           0.00561
           D1           0.00004   0.00646
           D2          -0.00051  -0.00093   0.01349
           D3           0.00062   0.00093  -0.01099   0.01292
 ITU=  1  1  1  1  0
     Eigenvalues ---    0.00172   0.00486   0.00572   0.00585   0.07686
     Eigenvalues ---    0.12677   0.15970   0.22119   0.27206   0.27347
     Eigenvalues ---    0.29638   0.51402
 En-DIIS/RFO-DIIS IScMMF=        0 using points:     5    4
 RFO step:  Lambda=-6.00310507D-06.
 DidBck=F Rises=F RFO-DIIS coefs:    1.36182   -0.36182
 Iteration  1 RMS(Cart)=  0.04456884 RMS(Int)=  0.00056883
 Iteration  2 RMS(Cart)=  0.00057858 RMS(Int)=  0.00001036
 Iteration  3 RMS(Cart)=  0.00000016 RMS(Int)=  0.00001035
 Variable       Old X    -DE/DX   Delta X   Delta X   Delta X     New X
                                 (Linear)    (Quad)   (Total)
    R1        2.51081   0.00002  -0.00012   0.00019   0.00007   2.51088
    R2        2.51039   0.00013  -0.00038   0.00044   0.00007   2.51045
    R3        5.08953   0.00038   0.02376   0.07962   0.10338   5.19291
    R4        2.50851   0.00059  -0.00100   0.00143   0.00043   2.50894
    R5        2.51621  -0.00123   0.00109  -0.00256  -0.00147   2.51474
    A1        1.61538   0.00024  -0.00210   0.00398   0.00191   1.61729
    A2        1.72496   0.00006   0.00050   0.00210   0.00260   1.72756
    A3        1.75853  -0.00008  -0.00062  -0.00210  -0.00271   1.75582
    A4        1.61500   0.00060  -0.00230   0.00449   0.00219   1.61719
    A5        3.11230  -0.00002   0.00024  -0.00621  -0.00598   3.10632
    A6        3.21077  -0.00003  -0.00457  -0.01152  -0.01610   3.19467
    D1        1.73648   0.00011   0.00004   0.00278   0.00282   1.73930
    D2        1.83988  -0.00008   0.01233   0.04387   0.05621   1.89609
    D3       -2.79743   0.00017   0.01040   0.04919   0.05956  -2.73786
         Item               Value     Threshold  Converged?
 Maximum Force            0.001232     0.000450     NO 
 RMS     Force            0.000423     0.000300     NO 
 Maximum Displacement     0.071761     0.001800     NO 
 RMS     Displacement     0.044495     0.001200     NO 
 Predicted change in Energy=-2.495214D-05
 GradGradGradGradGradGradGradGradGradGradGradGradGradGradGradGradGradGrad

                          Input orientation:                          
 ---------------------------------------------------------------------
 Center     Atomic      Atomic             Coordinates (Angstroms)
 Number     Number       Type             X           Y           Z
 ---------------------------------------------------------------------
      1         16           0        1.988769    0.069263   -0.016047
      2          1           0        2.209145    0.027257    1.293574
      3          1           0        2.273352   -1.219455   -0.167911
      4         16           0       -2.087503   -0.003089    0.054821
      5          1           0       -2.147327    1.267813   -0.324587
      6          1           0       -0.757678   -0.018931    0.008024
 ---------------------------------------------------------------------
                    Distance matrix (angstroms):
                    1          2          3          4          5
     1  S    0.000000
     2  H    1.328698   0.000000
     3  H    1.328474   1.922070   0.000000
     4  S    4.077530   4.471757   4.532792   0.000000
     5  H    4.317292   4.810018   5.074786   1.327676   0.000000
     6  H    2.747968   3.233699   3.264867   1.330742   1.922879
                    6
     6  H    0.000000
 Stoichiometry    H4S2
 Framework group  C1[X(H4S2)]
 Deg. of freedom    12
 Full point group                 C1      NOp   1
 Largest Abelian subgroup         C1      NOp   1
 Largest concise Abelian subgroup C1      NOp   1
                         Standard orientation:                         
 ---------------------------------------------------------------------
 Center     Atomic      Atomic             Coordinates (Angstroms)
 Number     Number       Type             X           Y           Z
 ---------------------------------------------------------------------
      1         16           0        1.987205    0.090854   -0.052777
      2          1           0        2.215849   -0.161344    1.231574
      3          1           0        2.298496   -1.148663   -0.415461
      4         16           0       -2.086110   -0.082195    0.013586
      5          1           0       -2.175326    1.232199   -0.151139
      6          1           0       -0.756538   -0.060739   -0.037916
 ---------------------------------------------------------------------
 Rotational constants (GHZ):     99.9262224      1.7863943      1.7772188
 Standard basis: STO-3G (5D, 7F)
 There are    22 symmetry adapted cartesian basis functions of A   symmetry.
 There are    22 symmetry adapted basis functions of A   symmetry.
    22 basis functions,    66 primitive gaussians,    22 cartesian basis functions
    18 alpha electrons       18 beta electrons
       nuclear repulsion energy        68.6028124881 Hartrees.
 NAtoms=    6 NActive=    6 NUniq=    6 SFac= 1.00D+00 NAtFMM=   60 NAOKFM=F Big=F
 Integral buffers will be    131072 words long.
 Raffenetti 1 integral format.
 Two-electron integral symmetry is turned on.
 One-electron integrals computed using PRISM.
 NBasis=    22 RedAO= T EigKep=  3.18D-01  NBF=    22
 NBsUse=    22 1.00D-06 EigRej= -1.00D+00 NBFU=    22
 Initial guess from the checkpoint file:  "h2s_dimer.chk"
 B after Tr=     0.000000    0.000000    0.000000
         Rot=    0.999763   -0.021765   -0.000087    0.000097 Ang=  -2.49 deg.
 ExpMin= 1.69D-01 ExpMax= 5.33D+02 ExpMxC= 5.33D+02 IAcc=1 IRadAn=         1 AccDes= 0.00D+00
 Harris functional with IExCor=  205 and IRadAn=       1 diagonalized for initial guess.
 HarFok:  IExCor=  205 AccDes= 0.00D+00 IRadAn=         1 IDoV= 1 UseB2=F ITyADJ=14
 ICtDFT=  3500011 ScaDFX=  1.000000  1.000000  1.000000  1.000000
 FoFCou: FMM=F IPFlag=           0 FMFlag=      100000 FMFlg1=           0
         NFxFlg=           0 DoJE=T BraDBF=F KetDBF=T FulRan=T
         wScrn=  0.000000 ICntrl=     500 IOpCl=  0 I1Cent=   200000004 NGrid=           0
         NMat0=    1 NMatS0=      1 NMatT0=    0 NMatD0=    1 NMtDS0=    0 NMtDT0=    0
 Petite list used in FoFCou.
 Keep R1 ints in memory in canonical form, NReq=859881.
 Requested convergence on RMS density matrix=1.00D-08 within 128 cycles.
 Requested convergence on MAX density matrix=1.00D-06.
 Requested convergence on             energy=1.00D-06.
 No special actions if energy rises.
 SCF Done:  E(RHF) =  -788.624276306     A.U. after    8 cycles
            NFock=  8  Conv=0.56D-08     -V/T= 2.0119
 Calling FoFJK, ICntrl=      2127 FMM=F ISym2X=0 I1Cent= 0 IOpClX= 0 NMat=1 NMatS=1 NMatT=0.
 ***** Axes restored to original set *****
 -------------------------------------------------------------------
 Center     Atomic                   Forces (Hartrees/Bohr)
 Number     Number              X              Y              Z
 -------------------------------------------------------------------
      1       16          -0.000051814    0.000197246    0.000027435
      2        1           0.000095205   -0.000097312   -0.000048233
      3        1           0.000031575   -0.000093849    0.000058175
      4       16           0.000881951   -0.000450898    0.000131250
      5        1           0.000030440    0.000398022   -0.000154852
      6        1          -0.000987357    0.000046791   -0.000013774
 -------------------------------------------------------------------
 Cartesian Forces:  Max     0.000987357 RMS     0.000352400

 GradGradGradGradGradGradGradGradGradGradGradGradGradGradGradGradGradGrad
 Berny optimization.
 Using GEDIIS/GDIIS optimizer.
 FormGI is forming the generalized inverse of G from B-inverse, IUseBI=4.
 Internal  Forces:  Max     0.000913099 RMS     0.000281444
 Search for a local minimum.
 Step number   6 out of a maximum of   24
 All quantities printed in internal units (Hartrees-Bohrs-Radians)
 Mixed Optimization -- En-DIIS/RFO-DIIS
 Swapping is turned off.
 Update second derivatives using D2CorX and points    3    4    5    6
 DE= -3.12D-05 DEPred=-2.50D-05 R= 1.25D+00
 TightC=F SS=  1.41D+00  RLast= 1.33D-01 DXNew= 1.4270D+00 3.9938D-01
 Trust test= 1.25D+00 RLast= 1.33D-01 DXMaxT set to 8.49D-01
 The second derivative matrix:
                          R1        R2        R3        R4        R5
           R1           0.27439
           R2           0.00118   0.27634
           R3           0.00006  -0.00070   0.00456
           R4           0.00122   0.00972  -0.00244   0.30730
           R5           0.00363  -0.01075   0.00519  -0.06836   0.44454
           A1           0.00260   0.00630  -0.00061   0.01600  -0.01812
           A2          -0.00132  -0.00075  -0.00402   0.00325  -0.01892
           A3          -0.00068  -0.00090   0.00343  -0.00066  -0.00412
           A4           0.00652   0.01346   0.00025   0.02774  -0.00969
           A5           0.00019   0.00026   0.00034   0.00019   0.00150
           A6           0.00024   0.00027   0.00047  -0.00023   0.00292
           D1           0.00032   0.00049  -0.00016   0.00051   0.00176
           D2          -0.00458  -0.00566  -0.00185  -0.00106  -0.03722
           D3           0.00462   0.00602  -0.00047   0.00231   0.03467
                          A1        A2        A3        A4        A5
           A1           0.15875
           A2          -0.00762   0.15988
           A3          -0.00394   0.00109   0.16004
           A4           0.02868  -0.00858  -0.00555   0.22418
           A5           0.00079  -0.00028  -0.00017   0.00156   0.00581
           A6           0.00197   0.00047  -0.00011   0.00154  -0.00001
           D1           0.00180  -0.00025  -0.00016   0.00258   0.00007
           D2          -0.02745   0.00331   0.00232  -0.03432  -0.00089
           D3           0.02777  -0.00391  -0.00208   0.03504   0.00091
                          A6        D1        D2        D3
           A6           0.00558
           D1           0.00002   0.00647
           D2          -0.00001  -0.00106   0.01526
           D3           0.00021   0.00109  -0.01325   0.01556
 ITU=  1  1  1  1  1  0
     Eigenvalues ---    0.00124   0.00494   0.00567   0.00591   0.07686
     Eigenvalues ---    0.12709   0.15969   0.23084   0.27206   0.27350
     Eigenvalues ---    0.30504   0.47579
 En-DIIS/RFO-DIIS IScMMF=        0 using points:     6    5    4
 RFO step:  Lambda=-1.95721436D-06.
 DidBck=F Rises=F RFO-DIIS coefs:    1.35425   -0.26993   -0.08432
 Iteration  1 RMS(Cart)=  0.02394303 RMS(Int)=  0.00029035
 Iteration  2 RMS(Cart)=  0.00026818 RMS(Int)=  0.00000522
 Iteration  3 RMS(Cart)=  0.00000003 RMS(Int)=  0.00000522
 Variable       Old X    -DE/DX   Delta X   Delta X   Delta X     New X
                                 (Linear)    (Quad)   (Total)
    R1        2.51088  -0.00003   0.00000  -0.00006  -0.00006   2.51081
    R2        2.51045   0.00009  -0.00006   0.00037   0.00031   2.51076
    R3        5.19291   0.00007   0.04216   0.00138   0.04354   5.23645
    R4        2.50894   0.00042  -0.00008   0.00119   0.00111   2.51006
    R5        2.51474  -0.00091  -0.00027  -0.00176  -0.00202   2.51272
    A1        1.61729  -0.00016   0.00019  -0.00101  -0.00081   1.61648
    A2        1.72756   0.00012   0.00104   0.00122   0.00226   1.72982
    A3        1.75582   0.00000  -0.00110   0.00004  -0.00106   1.75476
    A4        1.61719  -0.00013   0.00024  -0.00106  -0.00082   1.61637
    A5        3.10632  -0.00002  -0.00206  -0.00398  -0.00605   3.10027
    A6        3.19467  -0.00001  -0.00677   0.00147  -0.00530   3.18937
    D1        1.73930   0.00009   0.00101   0.00105   0.00206   1.74136
    D2        1.89609   0.00011   0.02279   0.01814   0.04094   1.93703
    D3       -2.73786  -0.00003   0.02352   0.01768   0.04119  -2.69667
         Item               Value     Threshold  Converged?
 Maximum Force            0.000913     0.000450     NO 
 RMS     Force            0.000281     0.000300     YES
 Maximum Displacement     0.047256     0.001800     NO 
 RMS     Displacement     0.023940     0.001200     NO 
 Predicted change in Energy=-5.123874D-06
 GradGradGradGradGradGradGradGradGradGradGradGradGradGradGradGradGradGrad

                          Input orientation:                          
 ---------------------------------------------------------------------
 Center     Atomic      Atomic             Coordinates (Angstroms)
 Number     Number       Type             X           Y           Z
 ---------------------------------------------------------------------
      1         16           0        1.997639    0.073304   -0.009207
      2          1           0        2.225272    0.013353    1.298439
      3          1           0        2.281419   -1.213486   -0.179253
      4         16           0       -2.100505    0.003531    0.064658
      5          1           0       -2.153397    1.264438   -0.349594
      6          1           0       -0.771670   -0.018283    0.022829
 ---------------------------------------------------------------------
                    Distance matrix (angstroms):
                    1          2          3          4          5
     1  S    0.000000
     2  H    1.328665   0.000000
     3  H    1.328637   1.921421   0.000000
     4  S    4.099403   4.498295   4.554326   0.000000
     5  H    4.331947   4.842931   5.082984   1.328265   0.000000
     6  H    2.771009   3.257276   3.284921   1.329672   1.921781
                    6
     6  H    0.000000
 Stoichiometry    H4S2
 Framework group  C1[X(H4S2)]
 Deg. of freedom    12
 Full point group                 C1      NOp   1
 Largest Abelian subgroup         C1      NOp   1
 Largest concise Abelian subgroup C1      NOp   1
                         Standard orientation:                         
 ---------------------------------------------------------------------
 Center     Atomic      Atomic             Coordinates (Angstroms)
 Number     Number       Type             X           Y           Z
 ---------------------------------------------------------------------
      1         16           0        1.997799    0.093272   -0.048471
      2          1           0        2.233376   -0.220815    1.220861
      3          1           0        2.308877   -1.127132   -0.471696
      4         16           0       -2.097396   -0.082107    0.012623
      5          1           0       -2.180065    1.234530   -0.142036
      6          1           0       -0.768634   -0.065215   -0.033561
 ---------------------------------------------------------------------
 Rotational constants (GHZ):     99.9273408      1.7674334      1.7585692
 Standard basis: STO-3G (5D, 7F)
 There are    22 symmetry adapted cartesian basis functions of A   symmetry.
 There are    22 symmetry adapted basis functions of A   symmetry.
    22 basis functions,    66 primitive gaussians,    22 cartesian basis functions
    18 alpha electrons       18 beta electrons
       nuclear repulsion energy        68.3721204087 Hartrees.
 NAtoms=    6 NActive=    6 NUniq=    6 SFac= 1.00D+00 NAtFMM=   60 NAOKFM=F Big=F
 Integral buffers will be    131072 words long.
 Raffenetti 1 integral format.
 Two-electron integral symmetry is turned on.
 One-electron integrals computed using PRISM.
 NBasis=    22 RedAO= T EigKep=  3.18D-01  NBF=    22
 NBsUse=    22 1.00D-06 EigRej= -1.00D+00 NBFU=    22
 Initial guess from the checkpoint file:  "h2s_dimer.chk"
 B after Tr=     0.000000    0.000000    0.000000
         Rot=    0.999849   -0.017381   -0.000047    0.000067 Ang=  -1.99 deg.
 ExpMin= 1.69D-01 ExpMax= 5.33D+02 ExpMxC= 5.33D+02 IAcc=1 IRadAn=         1 AccDes= 0.00D+00
 Harris functional with IExCor=  205 and IRadAn=       1 diagonalized for initial guess.
 HarFok:  IExCor=  205 AccDes= 0.00D+00 IRadAn=         1 IDoV= 1 UseB2=F ITyADJ=14
 ICtDFT=  3500011 ScaDFX=  1.000000  1.000000  1.000000  1.000000
 FoFCou: FMM=F IPFlag=           0 FMFlag=      100000 FMFlg1=           0
         NFxFlg=           0 DoJE=T BraDBF=F KetDBF=T FulRan=T
         wScrn=  0.000000 ICntrl=     500 IOpCl=  0 I1Cent=   200000004 NGrid=           0
         NMat0=    1 NMatS0=      1 NMatT0=    0 NMatD0=    1 NMtDS0=    0 NMtDT0=    0
 Petite list used in FoFCou.
 Keep R1 ints in memory in canonical form, NReq=859881.
 Requested convergence on RMS density matrix=1.00D-08 within 128 cycles.
 Requested convergence on MAX density matrix=1.00D-06.
 Requested convergence on             energy=1.00D-06.
 No special actions if energy rises.
 SCF Done:  E(RHF) =  -788.624282658     A.U. after    8 cycles
            NFock=  8  Conv=0.21D-08     -V/T= 2.0119
 Calling FoFJK, ICntrl=      2127 FMM=F ISym2X=0 I1Cent= 0 IOpClX= 0 NMat=1 NMatS=1 NMatT=0.
 ***** Axes restored to original set *****
 -------------------------------------------------------------------
 Center     Atomic                   Forces (Hartrees/Bohr)
 Number     Number              X              Y              Z
 -------------------------------------------------------------------
      1       16          -0.000095014   -0.000024961    0.000068545
      2        1           0.000076440   -0.000008085   -0.000016187
      3        1          -0.000001792    0.000030422   -0.000014844
      4       16           0.000219571    0.000062439    0.000000655
      5        1          -0.000036447   -0.000027024   -0.000020665
      6        1          -0.000162757   -0.000032791   -0.000017504
 -------------------------------------------------------------------
 Cartesian Forces:  Max     0.000219571 RMS     0.000076062

 GradGradGradGradGradGradGradGradGradGradGradGradGradGradGradGradGradGrad
 Berny optimization.
 Using GEDIIS/GDIIS optimizer.
 FormGI is forming the generalized inverse of G from B-inverse, IUseBI=4.
 Internal  Forces:  Max     0.000183021 RMS     0.000068480
 Search for a local minimum.
 Step number   7 out of a maximum of   24
 All quantities printed in internal units (Hartrees-Bohrs-Radians)
 Mixed Optimization -- En-DIIS/RFO-DIIS
 Swapping is turned off.
 Update second derivatives using D2CorX and points    3    4    5    6    7
 DE= -6.35D-06 DEPred=-5.12D-06 R= 1.24D+00
 TightC=F SS=  1.41D+00  RLast= 7.31D-02 DXNew= 1.4270D+00 2.1943D-01
 Trust test= 1.24D+00 RLast= 7.31D-02 DXMaxT set to 8.49D-01
 The second derivative matrix:
                          R1        R2        R3        R4        R5
           R1           0.27444
           R2           0.00127   0.27742
           R3          -0.00010   0.00060   0.00545
           R4           0.00143   0.01161   0.00164   0.30850
           R5           0.00334  -0.00894   0.00014  -0.05565   0.40556
           A1           0.00333   0.00589  -0.00110   0.01116  -0.00297
           A2          -0.00071  -0.00225  -0.00572  -0.00494   0.00087
           A3          -0.00059  -0.00128   0.00330  -0.00236  -0.00049
           A4           0.00720   0.01230  -0.00191   0.02269  -0.00057
           A5           0.00015   0.00039   0.00031   0.00095  -0.00058
           A6           0.00024   0.00019   0.00042  -0.00038   0.00284
           D1           0.00032   0.00051  -0.00027   0.00063   0.00134
           D2          -0.00430  -0.00650  -0.00114  -0.00679  -0.02075
           D3           0.00456   0.00641  -0.00189   0.00551   0.02433
                          A1        A2        A3        A4        A5
           A1           0.16282
           A2          -0.00564   0.15654
           A3          -0.00387   0.00098   0.16001
           A4           0.03286  -0.00662  -0.00532   0.23079
           A5           0.00094   0.00021  -0.00010   0.00166   0.00575
           A6           0.00195   0.00066  -0.00010   0.00172  -0.00001
           D1           0.00196  -0.00019  -0.00013   0.00277   0.00006
           D2          -0.02857   0.00052   0.00186  -0.03587  -0.00046
           D3           0.02978  -0.00232  -0.00163   0.03744   0.00064
                          A6        D1        D2        D3
           A6           0.00558
           D1           0.00003   0.00647
           D2          -0.00005  -0.00099   0.01276
           D3           0.00033   0.00103  -0.01161   0.01433
 ITU=  1  1  1  1  1  1  0
     Eigenvalues ---    0.00076   0.00541   0.00566   0.00643   0.07657
     Eigenvalues ---    0.12651   0.15975   0.24015   0.27211   0.27381
     Eigenvalues ---    0.31075   0.43281
 En-DIIS/RFO-DIIS IScMMF=        0 using points:     7    6    5    4
 RFO step:  Lambda=-2.28867231D-07.
 DidBck=F Rises=F RFO-DIIS coefs:    1.24702   -0.16048   -0.08765    0.00110
 Iteration  1 RMS(Cart)=  0.01682132 RMS(Int)=  0.00018444
 Iteration  2 RMS(Cart)=  0.00016342 RMS(Int)=  0.00000135
 Iteration  3 RMS(Cart)=  0.00000001 RMS(Int)=  0.00000135
 Variable       Old X    -DE/DX   Delta X   Delta X   Delta X     New X
                                 (Linear)    (Quad)   (Total)
    R1        2.51081   0.00000  -0.00001  -0.00002  -0.00003   2.51078
    R2        2.51076  -0.00003   0.00008  -0.00021  -0.00012   2.51063
    R3        5.23645  -0.00002   0.01963  -0.00102   0.01861   5.25506
    R4        2.51006  -0.00002   0.00032  -0.00040  -0.00009   2.50997
    R5        2.51272  -0.00018  -0.00063  -0.00018  -0.00081   2.51190
    A1        1.61648  -0.00001  -0.00003  -0.00021  -0.00024   1.61624
    A2        1.72982   0.00010   0.00078   0.00134   0.00212   1.73194
    A3        1.75476   0.00000  -0.00049   0.00011  -0.00039   1.75437
    A4        1.61637   0.00009  -0.00001   0.00029   0.00029   1.61666
    A5        3.10027  -0.00001  -0.00201  -0.00189  -0.00390   3.09637
    A6        3.18937   0.00000  -0.00269  -0.00042  -0.00311   3.18627
    D1        1.74136   0.00010   0.00075   0.00134   0.00209   1.74345
    D2        1.93703   0.00003   0.01494   0.01800   0.03294   1.96997
    D3       -2.69667   0.00004   0.01530   0.01832   0.03361  -2.66306
         Item               Value     Threshold  Converged?
 Maximum Force            0.000183     0.000450     YES
 RMS     Force            0.000068     0.000300     YES
[...]
     5   1     0.00   0.00   0.80    -0.17   0.01   0.00     0.52   0.04   0.00
     6   1     0.00   0.00  -0.10    -0.28  -0.11   0.00     0.01  -0.50  -0.01
                      4                      5                      6
                      A                      A                      A
 Frequencies --     95.2582               137.5026               200.4434
 Red. masses --      1.0232                 1.1056                 1.0261
 Frc consts  --      0.0055                 0.0123                 0.0243
 IR Inten    --      1.0762                13.3690                17.7961
 Raman Activ --     30.5184                 8.9149                 2.5980
 Depolar (P) --      0.7500                 0.7467                 0.7500
 Depolar (U) --      0.8571                 0.8550                 0.8571
  Atom  AN      X      Y      Z        X      Y      Z        X      Y      Z
     1  16     0.00   0.00   0.01     0.04   0.03   0.00     0.00   0.00   0.02
     2   1     0.63   0.12  -0.10    -0.44  -0.16   0.00     0.29   0.03  -0.05
     3   1    -0.62  -0.11  -0.10    -0.44  -0.16   0.00    -0.29  -0.03  -0.05
     4  16     0.00   0.00  -0.02    -0.03   0.00   0.00     0.00   0.00   0.02
     5   1     0.01   0.00   0.01     0.52   0.03   0.00     0.00   0.00  -0.08
     6   1     0.00  -0.01   0.41    -0.02  -0.54   0.00     0.00   0.00  -0.91
                      7                      8                      9
                      A                      A                      A
 Frequencies --   1605.9996              1610.1739              3272.3348
 Red. masses --      1.0386                 1.0383                 1.0367
 Frc consts  --      1.5784                 1.5860                 6.5403
 IR Inten    --     22.7984                18.6276                 7.4417
 Raman Activ --     25.0759                21.6547               128.4945
 Depolar (P) --      0.7431                 0.7405                 0.1103
 Depolar (U) --      0.8526                 0.8509                 0.1987
  Atom  AN      X      Y      Z        X      Y      Z        X      Y      Z
     1  16     0.01  -0.03   0.00     0.00   0.00   0.00     0.00   0.00   0.00
     2   1    -0.18   0.47   0.50     0.01  -0.03  -0.04    -0.03   0.08  -0.09
     3   1    -0.18   0.47  -0.50     0.01  -0.03   0.04    -0.03   0.08   0.09
     4  16     0.00   0.00   0.00    -0.02  -0.02   0.00     0.02   0.02   0.00
     5   1     0.05   0.00   0.00     0.70   0.02   0.00     0.04  -0.63   0.00
     6   1     0.00   0.05   0.00    -0.02   0.71   0.00    -0.76   0.00   0.00
                     10                     11                     12
                      A                      A                      A
 Frequencies --   3276.6422              3318.3010              3324.0023
 Red. masses --      1.0366                 1.0400                 1.0400
 Frc consts  --      6.5573                 6.7468                 6.7700
 IR Inten    --     18.3562                 6.7032                 8.2133
 Raman Activ --     62.9310                69.9207                53.1276
 Depolar (P) --      0.2373                 0.7456                 0.7500
 Depolar (U) --      0.3836                 0.8543                 0.8571
  Atom  AN      X      Y      Z        X      Y      Z        X      Y      Z
     1  16    -0.01   0.03   0.00     0.00   0.00   0.00     0.00   0.00   0.03
     2   1     0.17  -0.45   0.51     0.00   0.00   0.00    -0.17   0.46  -0.51
     3   1     0.17  -0.44  -0.51     0.00   0.00   0.00     0.18  -0.46  -0.51
     4  16     0.00   0.00   0.00    -0.02   0.02   0.00     0.00   0.00   0.00
     5   1     0.01  -0.12   0.00     0.04  -0.77   0.00     0.00   0.00   0.00
     6   1    -0.13   0.00   0.00     0.64   0.01   0.00     0.00   0.00   0.00

 -------------------
 - Thermochemistry -
 -------------------
 Temperature   298.150 Kelvin.  Pressure   1.00000 Atm.
 Atom     1 has atomic number 16 and mass  31.97207
 Atom     2 has atomic number  1 and mass   1.00783
 Atom     3 has atomic number  1 and mass   1.00783
 Atom     4 has atomic number 16 and mass  31.97207
 Atom     5 has atomic number  1 and mass   1.00783
 Atom     6 has atomic number  1 and mass   1.00783
 Molecular mass:    67.97544 amu.
 Principal axes and moments of inertia in atomic units:
                           1         2         3
     Eigenvalues --    17.859561021.564071026.13489
           X            0.99977  -0.02167   0.00000
           Y            0.02167   0.99977  -0.00002
           Z            0.00000   0.00002   1.00000
 This molecule is an asymmetric top.
 Rotational symmetry number  1.
 Rotational temperatures (Kelvin)      4.84972     0.08479     0.08441
 Rotational constants (GHZ):         101.05183     1.76665     1.75878
 Zero-point vibrational energy     101776.0 (Joules/Mol)
                                   24.32504 (Kcal/Mol)
 Warning -- explicit consideration of   6 degrees of freedom as
           vibrations may cause significant error
 Vibrational temperatures:     48.90    80.71   122.11   137.06   197.84
          (Kelvin)            288.39  2310.67  2316.68  4708.15  4714.35
                             4774.29  4782.49
 
 Zero-point correction=                           0.038764 (Hartree/Particle)
 Thermal correction to Energy=                    0.046027
 Thermal correction to Enthalpy=                  0.046972
 Thermal correction to Gibbs Free Energy=         0.006354
 Sum of electronic and zero-point Energies=           -788.585538
 Sum of electronic and thermal Energies=              -788.578275
 Sum of electronic and thermal Enthalpies=            -788.577331
 Sum of electronic and thermal Free Energies=         -788.617948
 
                     E (Thermal)             CV                S
                      KCal/Mol        Cal/Mol-Kelvin    Cal/Mol-Kelvin
 Total                   28.883             17.689             85.486
 Electronic               0.000              0.000              0.000
 Translational            0.889              2.981             38.567
 Rotational               0.889              2.981             24.441
 Vibrational             27.105             11.728             22.478
 Vibration     1          0.594              1.983              5.582
 Vibration     2          0.596              1.975              4.590
 Vibration     3          0.601              1.960              3.775
 Vibration     4          0.603              1.953              3.549
 Vibration     5          0.614              1.916              2.838
 Vibration     6          0.638              1.839              2.129
                       Q            Log10(Q)             Ln(Q)
 Total Bot       0.119481D-02         -2.922701         -6.729768
 Total V=0       0.808460D+15         14.907658         34.326152
 Vib (Bot)       0.110739D-14        -14.955701        -34.436775
 Vib (Bot)    1  0.609002D+01          0.784619          1.806651
 Vib (Bot)    2  0.368273D+01          0.566169          1.303653
 Vib (Bot)    3  0.242467D+01          0.384653          0.885696
 Vib (Bot)    4  0.215637D+01          0.333723          0.768425
 Vib (Bot)    5  0.147976D+01          0.170193          0.391883
 Vib (Bot)    6  0.994603D+00         -0.002350         -0.005412
 Vib (V=0)       0.749304D+03          2.874658          6.619145
 Vib (V=0)    1  0.661051D+01          0.820235          1.888661
 Vib (V=0)    2  0.421651D+01          0.624954          1.439009
 Vib (V=0)    3  0.297569D+01          0.473587          1.090475
 Vib (V=0)    4  0.271358D+01          0.433542          0.998267
 Vib (V=0)    5  0.206196D+01          0.314279          0.723655
 Vib (V=0)    6  0.161321D+01          0.207691          0.478225
 Electronic      0.100000D+01          0.000000          0.000000
 Translational   0.220284D+08          7.342983         16.907844
 Rotational      0.489798D+05          4.690017         10.799163
 ***** Axes restored to original set *****
 -------------------------------------------------------------------
 Center     Atomic                   Forces (Hartrees/Bohr)
 Number     Number              X              Y              Z
 -------------------------------------------------------------------
      1       16           0.000000725    0.000003202    0.000004490
      2        1          -0.000000452   -0.000000907   -0.000005145
      3        1           0.000000360   -0.000002208    0.000001152
      4       16           0.000001755   -0.000005935    0.000004290
      5        1           0.000001466    0.000004205   -0.000002810
      6        1          -0.000003854    0.000001644   -0.000001978
 -------------------------------------------------------------------
 Cartesian Forces:  Max     0.000005935 RMS     0.000003079
 FormGI is forming the generalized inverse of G from B-inverse, IUseBI=4.

 GradGradGradGradGradGradGradGradGradGradGradGradGradGradGradGradGradGrad
 Berny optimization.
 Internal  Forces:  Max     0.000005005 RMS     0.000002633
 Search for a local minimum.
 Step number   1 out of a maximum of    2
 All quantities printed in internal units (Hartrees-Bohrs-Radians)
 Second derivative matrix not updated -- analytic derivatives used.
 The second derivative matrix:
                          R1        R2        R3        R4        R5
           R1           0.40284
           R2          -0.00512   0.40285
           R3           0.00006   0.00006   0.00221
           R4          -0.00004  -0.00004  -0.00032   0.40268
           R5          -0.00009  -0.00009   0.00194  -0.00512   0.40228
           A1           0.00452   0.00452   0.00037   0.00008  -0.00029
           A2          -0.00062  -0.00073  -0.00018  -0.00004   0.00006
           A3          -0.00051  -0.00030  -0.00030  -0.00008   0.00006
           A4           0.00000   0.00000   0.00054   0.00712   0.00665
           A5           0.00025   0.00025   0.00021  -0.00011  -0.00019
           A6           0.00007  -0.00007   0.00000   0.00000   0.00000
           D1           0.00034   0.00025  -0.00013  -0.00003   0.00000
           D2          -0.00219  -0.00227  -0.00013  -0.00003  -0.00018
           D3           0.00225   0.00220   0.00013   0.00003   0.00018
                          A1        A2        A3        A4        A5
           A1           0.12983
           A2          -0.02174   0.00440
           A3          -0.01644   0.00235   0.00505
           A4          -0.00009  -0.00007  -0.00017   0.29890
           A5           0.00684  -0.00102  -0.00057  -0.00105   0.00275
           A6          -0.00001   0.00020  -0.00037   0.00000   0.00000
           D1           0.00556  -0.00019  -0.00084  -0.00011   0.00045
           D2          -0.06314   0.01058   0.00761   0.00001  -0.00325
           D3           0.06314  -0.01049  -0.00778  -0.00001   0.00325
                          A6        D1        D2        D3
           A6           0.00151
           D1           0.00017   0.00098
           D2           0.00010  -0.00273   0.03081
           D3           0.00005   0.00281  -0.03070   0.03079
 ITU=  0
     Eigenvalues ---    0.00009   0.00119   0.00146   0.00218   0.00252
     Eigenvalues ---    0.00331   0.19725   0.29795   0.39799   0.39835
     Eigenvalues ---    0.40762   0.40796
 Angle between quadratic step and forces=  75.10 degrees.
 Linear search not attempted -- first point.
 Iteration  1 RMS(Cart)=  0.00043749 RMS(Int)=  0.00000012
 Iteration  2 RMS(Cart)=  0.00000015 RMS(Int)=  0.00000000
 Variable       Old X    -DE/DX   Delta X   Delta X   Delta X     New X
                                 (Linear)    (Quad)   (Total)
    R1        2.51072   0.00000   0.00000  -0.00001  -0.00001   2.51071
    R2        2.51070   0.00000   0.00000   0.00000   0.00000   2.51071
    R3        5.23158   0.00000   0.00000   0.00021   0.00021   5.23179
    R4        2.50997   0.00001   0.00000   0.00001   0.00001   2.50999
    R5        2.51224   0.00000   0.00000  -0.00001  -0.00001   2.51223
    A1        1.61668   0.00000   0.00000  -0.00002  -0.00002   1.61666
    A2        1.77823   0.00000   0.00000   0.00016   0.00016   1.77839
    A3        1.77878   0.00000   0.00000  -0.00040  -0.00040   1.77839
    A4        1.61671   0.00000   0.00000  -0.00001  -0.00001   1.61670
    A5        3.08835   0.00000   0.00000   0.00061   0.00061   3.08896
    A6        3.14129   0.00000   0.00000   0.00030   0.00030   3.14159
    D1        1.79302   0.00000   0.00000   0.00012   0.00012   1.79314
    D2        2.30716   0.00000   0.00000   0.00011   0.00011   2.30727
    D3       -2.30724   0.00000   0.00000  -0.00003  -0.00003  -2.30727
         Item               Value     Threshold  Converged?
 Maximum Force            0.000005     0.000450     YES
 RMS     Force            0.000003     0.000300     YES
 Maximum Displacement     0.000817     0.001800     YES
 RMS     Displacement     0.000438     0.001200     YES
 Predicted change in Energy=-1.071501D-09
 Optimization completed.
    -- Stationary point found.
                           ----------------------------
                           !   Optimized Parameters   !
                           ! (Angstroms and Degrees)  !
 --------------------------                            --------------------------
 ! Name  Definition              Value          Derivative Info.                !
 --------------------------------------------------------------------------------
 ! R1    R(1,2)                  1.3286         -DE/DX =    0.0                 !
 ! R2    R(1,3)                  1.3286         -DE/DX =    0.0                 !
 ! R3    R(1,6)                  2.7684         -DE/DX =    0.0                 !
 ! R4    R(4,5)                  1.3282         -DE/DX =    0.0                 !
 ! R5    R(4,6)                  1.3294         -DE/DX =    0.0                 !
 ! A1    A(2,1,3)               92.6288         -DE/DX =    0.0                 !
 ! A2    A(2,1,6)              101.885          -DE/DX =    0.0                 !
 ! A3    A(3,1,6)              101.9168         -DE/DX =    0.0                 !
 ! A4    A(5,4,6)               92.6309         -DE/DX =    0.0                 !
 ! A5    L(1,6,4,5,-1)         176.9495         -DE/DX =    0.0                 !
 ! A6    L(1,6,4,5,-2)         179.9828         -DE/DX =    0.0                 !
 ! D1    D(2,1,3,6)            102.7323         -DE/DX =    0.0                 !
 ! D2    D(2,1,4,5)            132.1904         -DE/DX =    0.0                 !
 ! D3    D(3,1,4,5)           -132.1951         -DE/DX =    0.0                 !
 --------------------------------------------------------------------------------
 GradGradGradGradGradGradGradGradGradGradGradGradGradGradGradGradGradGrad

 1\1\GINC-MAYANK-HP\Freq\RHF\STO-3G\H4S2\MAYANK\19-Feb-2025\0\\#N Geom=
 AllCheck Guess=TCheck SCRF=Check GenChk RHF/STO-3G Freq\\Title Card Re
 quired\\0,1\S,1.9767425683,0.1055347302,0.0571207119\H,2.2994223714,-0
 .105841856,1.3285037377\H,2.2723348714,-1.1426438124,-0.2891001026\S,-
 2.1183167924,0.0574681004,0.1579798757\H,-2.1622863199,1.1754268398,-0
 .5578459662\H,-0.7891396988,0.0329129981,0.1512147434\\Version=AM64L-G
 09RevD.01\State=1-A\HF=-788.6243021\RMSD=0.000e+00\RMSF=3.079e-06\Zero
 Point=0.0387644\Thermal=0.0460274\Dipole=0.5077618,-0.0935465,0.051367
 2\DipoleDeriv=-0.3030754,-0.1109993,0.0761728,-0.1427107,0.1554819,-0.
 1008866,0.0965259,-0.1014264,0.0577486,0.0923821,0.0451246,-0.0688967,
 0.0739114,-0.0312582,0.1242284,-0.039957,0.0140362,-0.0633713,0.093057
 2,0.0804186,-0.0143947,0.0635229,-0.112456,-0.0236078,-0.0509556,0.086
 7822,0.0171298,0.0794589,0.1160372,-0.079871,0.1150515,0.0141568,-0.16
 82811,-0.0792368,-0.1682959,-0.1361314,-0.0178718,-0.1035104,0.0685735
 ,-0.0085233,-0.053906,0.1075259,0.0076897,0.1091326,0.0435441,0.056049
 ,-0.0270706,0.0184161,-0.1012519,0.0279815,0.0610213,0.0659339,0.05977
 14,0.0810802\Polar=10.787667,-3.0558279,13.1464853,1.9476402,-1.804963
 8,11.3744432\PolarDeriv=-4.0463221,3.3470294,-0.7190487,-2.1242813,-0.
 2576736,-0.97526,0.0309935,-1.7448129,7.7999773,0.0723056,-0.7031891,1
 .6479581,-0.0080925,0.0351951,-0.0106631,-1.7554957,2.7606092,-5.95967
 82,1.3381801,-0.1319132,0.1580252,3.2661234,0.0357394,0.7052675,0.0954
 232,0.8456963,-0.6664377,-0.1779446,2.6333889,-1.0778481,0.2119513,-0.
 0516803,0.0211624,1.2288642,-0.2067031,7.6831353,1.1810495,-3.0091556,
 0.5653463,-1.2427681,0.2315003,0.2913933,-0.1297614,1.1432558,-7.20941
 96,0.113885,-1.9023061,-0.5747869,-0.1665514,0.02053,-0.0000877,0.7801
 314,-2.5923042,-1.6914445,-9.1940963,-1.3704603,-0.5131158,0.9951144,0
 .4572782,-0.0694865,-0.7544039,-2.0462755,-5.667627,-0.3013353,2.48537
 56,-0.5421276,0.5532307,-0.3284082,1.0405929,-2.3421697,-2.7684691,3.0
 356432,-0.3363909,2.2605104,0.3305529,-1.455005,-0.3146184,0.0328254,0
 .1673419,-0.796444,6.2521646,0.1666808,-2.4218282,0.4845674,-0.1195409
 ,0.1742835,-0.8116015,-0.6399413,3.0347279,-3.4945014,11.0575797,-1.09
 60107,0.17824,0.5608167,-0.1522258,0.0152603,0.5904067,2.5985803,-0.50
 86575,0.1264085,-0.0914412,0.062237,-0.4709971,0.1500799,-0.239403,2.7
 286111,-0.2278606,0.4268455\HyperPolar=-12.6909857,0.6225341,1.6692464
 ,-3.4948147,-0.0232323,1.7066008,-11.7154788,3.6547226,1.0292919,13.05
 16625\PG=C01 [X(H4S2)]\NImag=0\\0.05699797,-0.12199637,0.42037249,0.08
 438546,0.00629082,0.42153585,-0.02894397,0.02579910,-0.10082386,0.0265
 9570,0.03618445,-0.05793707,0.09226980,-0.02544087,0.05215904,-0.08636
 017,0.04243957,-0.36109093,0.09069512,-0.04912106,0.37224620,-0.025589
 81,0.09618812,0.01640858,0.00222604,-0.01060707,-0.00422127,0.02322920
 ,0.08619952,-0.36222882,-0.09849224,-0.00038333,0.00579936,0.00668007,
 -0.08586093,0.35643674,0.00169013,-0.04865528,-0.06016483,0.01042681,-
 0.04317815,-0.01117114,-0.01228578,0.09180462,0.07134574,-0.00164855,0
 .00018393,-0.00008430,-0.00003810,-0.00005316,0.00008640,-0.00004292,-
 0.00009897,0.00001267,0.44634995,0.00043939,0.00039995,-0.00006683,0.0
 0005349,-0.00008257,0.00003725,-0.00007661,-0.00002154,0.00003945,0.01
 390572,0.31735227,-0.00024762,-0.00006226,0.00035175,0.00011039,0.0000
 1093,0.00001030,-0.00009396,0.00006792,-0.00004610,-0.01646054,-0.2032
 6751,0.13115724,-0.00025069,-0.00011877,0.00007974,0.00002417,0.000019
 71,-0.00000223,0.00002486,0.00000922,-0.00001725,-0.04614455,-0.027494
 54,0.01840276,0.04801070,-0.00019558,-0.00005960,0.00001471,-0.0000583
 8,0.00004746,-0.00002559,-0.00001929,0.00001790,-0.00001988,0.01703102
 ,-0.28407329,0.18173559,-0.01264654,0.28520996,0.00012886,0.00001329,-
 0.00005277,-0.00000635,-0.00000691,-0.00000349,0.00005516,-0.00004033,
 0.00002533,-0.01013648,0.18248944,-0.11688578,0.00729376,-0.18257230,0
 .11693409,-0.00056494,-0.00005601,0.00003438,0.00013616,-0.00010306,-0
 .00019785,0.00015263,0.00013450,0.00017342,-0.39847583,0.01317255,-0.0
 0171104,-0.00166448,-0.00411123,0.00266507,0.40041647,-0.00063140,-0.0
 0054695,-0.00001627,0.00002999,0.00001378,-0.00001023,0.00037578,-0.00
 000364,0.00000923,-0.03096853,-0.03357482,0.02151533,0.04023092,-0.001
 14242,0.00011680,-0.00903676,0.03525406,0.00040335,-0.00002614,-0.0005
 7905,-0.00040212,0.00002538,0.00000906,0.00013728,-0.00002005,0.000011
 00,0.02658225,0.02076820,-0.01458740,-0.02575678,0.00086747,-0.0000173
 8,-0.00096397,-0.02161486,0.01516376\\-0.00000073,-0.00000320,-0.00000
 449,0.00000045,0.00000091,0.00000514,-0.00000036,0.00000221,-0.0000011
 5,-0.00000175,0.00000594,-0.00000429,-0.00000147,-0.00000420,0.0000028
 1,0.00000385,-0.00000164,0.00000198\\\@


 I am not a vegetarian because I love animals;
 I am a vegetarian because I hate plants.
                               -- A. Whitney Brown
 Job cpu time:       0 days  0 hours  0 minutes  0.9 seconds.
 File lengths (MBytes):  RWF=      5 Int=      0 D2E=      0 Chk=      1 Scr=      1
 Normal termination of Gaussian 09 at Wed Feb 19 03:09:13 2025.
