 Entering Gaussian System, Link 0=g09
 Input=/home/mayank/Desktop/software/gaussian/Gview_and_Gaussian/g09/scratch/Q5/h2s_monomer.com
 Output=/home/mayank/Desktop/software/gaussian/Gview_and_Gaussian/g09/scratch/Q5/h2s_monomer.log
 Initial command:
 /home/mayank/Desktop/software/gaussian/Gview_and_Gaussian/g09/l1.exe "/home/mayank/Desktop/software/gaussian/Gview_and_Gaussian/g09/scratch/Gau-72712.inp" -scrdir="/home/mayank/Desktop/software/gaussian/Gview_and_Gaussian/g09/scratch/"
 Entering Link 1 = /home/mayank/Desktop/software/gaussian/Gview_and_Gaussian/g09/l1.exe PID=     72715.
  
 Copyright (c) 1988,1990,1992,1993,1995,1998,2003,2009,2013,
            Gaussian, Inc.  All Rights Reserved.
  
 This is part of the Gaussian(R) 09 program.  It is based on
 the Gaussian(R) 03 system (copyright 2003, Gaussian, Inc.),
 the Gaussian(R) 98 system (copyright 1998, Gaussian, Inc.),
 the Gaussian(R) 94 system (copyright 1995, Gaussian, Inc.),
 the Gaussian 92(TM) system (copyright 1992, Gaussian, Inc.),
 the Gaussian 90(TM) system (copyright 1990, Gaussian, Inc.),
 the Gaussian 88(TM) system (copyright 1988, Gaussian, Inc.),
 the Gaussian 86(TM) system (copyright 1986, Carnegie Mellon
 University), and the Gaussian 82(TM) system (copyright 1983,
 Carnegie Mellon University). Gaussian is a federally registered
 trademark of Gaussian, Inc.
  
 This software contains proprietary and confidential information,
 including trade secrets, belonging to Gaussian, Inc.
  
 This software is provided under written license and may be
 used, copied, transmitted, or stored only in accord with that
 written license.
  
 The following legend is applicable only to US Government
 contracts under FAR:
  
                    RESTRICTED RIGHTS LEGEND
  
 Use, reproduction and disclosure by the US Government is
 subject to restrictions as set forth in subparagraphs (a)
 and (c) of the Commercial Computer Software - Restricted
 Rights clause in FAR 52.227-19.
  
 Gaussian, Inc.
 340 Quinnipiac St., Bldg. 40, Wallingford CT 06492
  
  
 ---------------------------------------------------------------
 Warning -- This program may not be used in any manner that
 competes with the business of Gaussian, Inc. or will provide
 assistance to any competitor of Gaussian, Inc.  The licensee
 of this program is prohibited from giving any competitor of
 Gaussian, Inc. access to this program.  By using this program,
 the user acknowledges that Gaussian, Inc. is engaged in the
 business of creating and licensing software in the field of
 computational chemistry and represents and warrants to the
 licensee that it is not a competitor of Gaussian, Inc. and that
 it will not use this program in any manner prohibited above.
 ---------------------------------------------------------------
  

 Cite this work as:
 Gaussian 09, Revision D.01,
 M. J. Frisch, G. W. Trucks, H. B. Schlegel, G. E. Scuseria, 
 M. A. Robb, J. R. Cheeseman, G. Scalmani, V. Barone, B. Mennucci, 
 G. A. Petersson, H. Nakatsuji, M. Caricato, X. Li, H. P. Hratchian, 
 A. F. Izmaylov, J. Bloino, G. Zheng, J. L. Sonnenberg, M. Hada, 
 M. Ehara, K. Toyota, R. Fukuda, J. Hasegawa, M. Ishida, T. Nakajima, 
 Y. Honda, O. Kitao, H. Nakai, T. Vreven, J. A. Montgomery, Jr., 
 J. E. Peralta, F. Ogliaro, M. Bearpark, J. J. Heyd, E. Brothers, 
 K. N. Kudin, V. N. Staroverov, T. Keith, R. Kobayashi, J. Normand, 
 K. Raghavachari, A. Rendell, J. C. Burant, S. S. Iyengar, J. Tomasi, 
 M. Cossi, N. Rega, J. M. Millam, M. Klene, J. E. Knox, J. B. Cross, 
 V. Bakken, C. Adamo, J. Jaramillo, R. Gomperts, R. E. Stratmann, 
 O. Yazyev, A. J. Austin, R. Cammi, C. Pomelli, J. W. Ochterski, 
 R. L. Martin, K. Morokuma, V. G. Zakrzewski, G. A. Voth, 
 P. Salvador, J. J. Dannenberg, S. Dapprich, A. D. Daniels, 
 O. Farkas, J. B. Foresman, J. V. Ortiz, J. Cioslowski, 
 and D. J. Fox, Gaussian, Inc., Wallingford CT, 2013.
 
 ******************************************
 Gaussian 09:  AM64L-G09RevD.01 24-Apr-2013
                19-Feb-2025 
 ******************************************
 %chk=h2s_monomer.chk
 --------------------------------------
 # opt freq hf/sto-3g geom=connectivity
 --------------------------------------
 1/18=20,19=15,38=1,57=2/1,3;
 2/9=110,12=2,17=6,18=5,40=1/2;
 3/6=3,11=9,16=1,25=1,30=1,71=1/1,2,3;
 4//1;
 5/5=2,38=5/2;
 6/7=2,8=2,9=2,10=2,28=1/1;
 7//1,2,3,16;
 1/18=20,19=15/3(2);
 2/9=110/2;
 99//99;
 2/9=110/2;
 3/6=3,11=9,16=1,25=1,30=1,71=1/1,2,3;
 4/5=5,16=3,69=1/1;
 5/5=2,38=5/2;
 7//1,2,3,16;
 1/18=20,19=15/3(-5);
 2/9=110/2;
 6/7=2,8=2,9=2,10=2,19=2,28=1/1;
 99/9=1/99;
 -------------------
 Title Card Required
 -------------------
 Symbolic Z-matrix:
 Charge =  0 Multiplicity = 1
 S                    -1.11111   1.21622   0. 
 H                     0.19889   1.21622   0. 
 H                    -1.5484    2.45108   0. 
 

 GradGradGradGradGradGradGradGradGradGradGradGradGradGradGradGradGradGrad
 Berny optimization.
 Initialization pass.
                           ----------------------------
                           !    Initial Parameters    !
                           ! (Angstroms and Degrees)  !
 --------------------------                            --------------------------
 ! Name  Definition              Value          Derivative Info.                !
 --------------------------------------------------------------------------------
 ! R1    R(1,2)                  1.31           estimate D2E/DX2                !
 ! R2    R(1,3)                  1.31           estimate D2E/DX2                !
 ! A1    A(2,1,3)              109.5            estimate D2E/DX2                !
 --------------------------------------------------------------------------------
 Trust Radius=3.00D-01 FncErr=1.00D-07 GrdErr=1.00D-07
 Number of steps in this run=     20 maximum allowed number of steps=    100.
 GradGradGradGradGradGradGradGradGradGradGradGradGradGradGradGradGradGrad

                          Input orientation:                          
 ---------------------------------------------------------------------
 Center     Atomic      Atomic             Coordinates (Angstroms)
 Number     Number       Type             X           Y           Z
 ---------------------------------------------------------------------
      1         16           0       -1.111111    1.216216    0.000000
      2          1           0        0.198889    1.216216    0.000000
      3          1           0       -1.548398    2.451077    0.000000
 ---------------------------------------------------------------------
                    Distance matrix (angstroms):
                    1          2          3
     1  S    0.000000
     2  H    1.310000   0.000000
     3  H    1.310000   2.139601   0.000000
 Stoichiometry    H2S
 Framework group  C2V[C2(S),SGV(H2)]
 Deg. of freedom     2
 Full point group                 C2V     NOp   4
 Largest Abelian subgroup         C2V     NOp   4
 Largest concise Abelian subgroup C2      NOp   2
                         Standard orientation:                         
 ---------------------------------------------------------------------
 Center     Atomic      Atomic             Coordinates (Angstroms)
 Number     Number       Type             X           Y           Z
 ---------------------------------------------------------------------
      1         16           0        0.000000    0.000000    0.084007
      2          1           0        0.000000    1.069800   -0.672054
      3          1           0        0.000000   -1.069800   -0.672054
 ---------------------------------------------------------------------
 Rotational constants (GHZ):    466.2733406    219.0768627    149.0474507
 Standard basis: STO-3G (5D, 7F)
 There are     6 symmetry adapted cartesian basis functions of A1  symmetry.
 There are     0 symmetry adapted cartesian basis functions of A2  symmetry.
 There are     2 symmetry adapted cartesian basis functions of B1  symmetry.
 There are     3 symmetry adapted cartesian basis functions of B2  symmetry.
 There are     6 symmetry adapted basis functions of A1  symmetry.
 There are     0 symmetry adapted basis functions of A2  symmetry.
 There are     2 symmetry adapted basis functions of B1  symmetry.
 There are     3 symmetry adapted basis functions of B2  symmetry.
    11 basis functions,    33 primitive gaussians,    11 cartesian basis functions
     9 alpha electrons        9 beta electrons
       nuclear repulsion energy        13.1737913625 Hartrees.
 NAtoms=    3 NActive=    3 NUniq=    2 SFac= 2.25D+00 NAtFMM=   60 NAOKFM=F Big=F
 Integral buffers will be    131072 words long.
 Raffenetti 1 integral format.
 Two-electron integral symmetry is turned on.
 One-electron integrals computed using PRISM.
 NBasis=    11 RedAO= T EigKep=  4.51D-01  NBF=     6     0     2     3
 NBsUse=    11 1.00D-06 EigRej= -1.00D+00 NBFU=     6     0     2     3
 ExpMin= 1.69D-01 ExpMax= 5.33D+02 ExpMxC= 5.33D+02 IAcc=1 IRadAn=         1 AccDes= 0.00D+00
 Harris functional with IExCor=  205 and IRadAn=       1 diagonalized for initial guess.
 HarFok:  IExCor=  205 AccDes= 0.00D+00 IRadAn=         1 IDoV= 1 UseB2=F ITyADJ=14
 ICtDFT=  3500011 ScaDFX=  1.000000  1.000000  1.000000  1.000000
 FoFCou: FMM=F IPFlag=           0 FMFlag=      100000 FMFlg1=           0
         NFxFlg=           0 DoJE=T BraDBF=F KetDBF=T FulRan=T
         wScrn=  0.000000 ICntrl=     500 IOpCl=  0 I1Cent=   200000004 NGrid=           0
         NMat0=    1 NMatS0=      1 NMatT0=    0 NMatD0=    1 NMtDS0=    0 NMtDT0=    0
 Petite list used in FoFCou.
 Initial guess orbital symmetries:
       Occupied  (A1) (A1) (B2) (A1) (B1) (A1) (B2) (A1) (B1)
       Virtual   (A1) (B2)
 The electronic state of the initial guess is 1-A1.
 Keep R1 ints in memory in symmetry-blocked form, NReq=825876.
 Requested convergence on RMS density matrix=1.00D-08 within 128 cycles.
 Requested convergence on MAX density matrix=1.00D-06.
 Requested convergence on             energy=1.00D-06.
 No special actions if energy rises.
 SCF Done:  E(RHF) =  -394.298794569     A.U. after    7 cycles
            NFock=  7  Conv=0.59D-09     -V/T= 2.0117

 **********************************************************************

            Population analysis using the SCF density.

 **********************************************************************

 Orbital symmetries:
       Occupied  (A1) (A1) (B2) (A1) (B1) (A1) (B2) (A1) (B1)
       Virtual   (A1) (B2)
 The electronic state is 1-A1.
 Alpha  occ. eigenvalues --  -90.73390  -8.63871  -6.27212  -6.26864  -6.26578
 Alpha  occ. eigenvalues --   -0.89736  -0.54337  -0.36181  -0.27419
 Alpha virt. eigenvalues --    0.48849   0.54694
          Condensed to atoms (all electrons):
               1          2          3
     1  S   15.398012   0.278324   0.278324
     2  H    0.278324   0.756516  -0.012170
     3  H    0.278324  -0.012170   0.756516
 Mulliken charges:
               1
     1  S    0.045340
     2  H   -0.022670
     3  H   -0.022670
 Sum of Mulliken charges =   0.00000
 Mulliken charges with hydrogens summed into heavy atoms:
               1
     1  S    0.000000
 Electronic spatial extent (au):  <R**2>=             38.9403
 Charge=              0.0000 electrons
 Dipole moment (field-independent basis, Debye):
    X=              0.0000    Y=              0.0000    Z=             -1.2863  Tot=              1.2863
 Quadrupole moment (field-independent basis, Debye-Ang):
   XX=            -13.1858   YY=            -11.0758   ZZ=            -12.2389
   XY=              0.0000   XZ=              0.0000   YZ=              0.0000
 Traceless Quadrupole moment (field-independent basis, Debye-Ang):
   XX=             -1.0190   YY=              1.0910   ZZ=             -0.0721
   XY=              0.0000   XZ=              0.0000   YZ=              0.0000
 Octapole moment (field-independent basis, Debye-Ang**2):
  XXX=              0.0000  YYY=              0.0000  ZZZ=             -0.0596  XYY=              0.0000
  XXY=              0.0000  XXZ=             -0.1192  XZZ=              0.0000  YZZ=              0.0000
  YYZ=             -0.0737  XYZ=              0.0000
 Hexadecapole moment (field-independent basis, Debye-Ang**3):
 XXXX=            -11.5856 YYYY=            -19.8681 ZZZZ=            -15.4921 XXXY=              0.0000
 XXXZ=              0.0000 YYYX=              0.0000 YYYZ=              0.0000 ZZZX=              0.0000
 ZZZY=              0.0000 XXYY=             -5.4354 XXZZ=             -4.5572 YYZZ=             -5.6680
 XXYZ=              0.0000 YYXZ=              0.0000 ZZXY=              0.0000
 N-N= 1.317379136248D+01 E-N=-9.641764166207D+02  KE= 3.897430248001D+02
 Symmetry A1   KE= 3.174156344046D+02
 Symmetry A2   KE= 0.000000000000D+00
 Symmetry B1   KE= 3.731620150423D+01
 Symmetry B2   KE= 3.501118889127D+01
 Calling FoFJK, ICntrl=      2127 FMM=F ISym2X=1 I1Cent= 0 IOpClX= 0 NMat=1 NMatS=1 NMatT=0.
 ***** Axes restored to original set *****
 -------------------------------------------------------------------
 Center     Atomic                   Forces (Hartrees/Bohr)
 Number     Number              X              Y              Z
 -------------------------------------------------------------------
      1       16          -0.040369019   -0.057120841    0.000000000
      2        1           0.014431933    0.032625940    0.000000000
      3        1           0.025937086    0.024494902    0.000000000
 -------------------------------------------------------------------
 Cartesian Forces:  Max     0.057120841 RMS     0.028747780

 GradGradGradGradGradGradGradGradGradGradGradGradGradGradGradGradGradGrad
 Berny optimization.
 FormGI is forming the generalized inverse of G from B-inverse, IUseBI=4.
 Internal  Forces:  Max     0.080766859 RMS     0.048096594
 Search for a local minimum.
 Step number   1 out of a maximum of   20
 All quantities printed in internal units (Hartrees-Bohrs-Radians)
 Mixed Optimization -- RFO/linear search
 Second derivative matrix not updated -- first step.
 The second derivative matrix:
                          R1        R2        A1
           R1           0.28975
           R2           0.00000   0.28975
           A1           0.00000   0.00000   0.16000
 ITU=  0
     Eigenvalues ---    0.16000   0.28975   0.28975
 RFO step:  Lambda=-3.47749850D-02 EMin= 1.60000000D-01
 Linear search not attempted -- first point.
 Maximum step size (   0.300) exceeded in Quadratic search.
    -- Step size scaled by   0.715
 Iteration  1 RMS(Cart)=  0.13964324 RMS(Int)=  0.05954044
 Iteration  2 RMS(Cart)=  0.08658334 RMS(Int)=  0.00268463
 Iteration  3 RMS(Cart)=  0.00206829 RMS(Int)=  0.00000029
 Iteration  4 RMS(Cart)=  0.00000043 RMS(Int)=  0.00000000
 ClnCor:  largest displacement from symmetrization is 4.68D-14 for atom     3.
 Variable       Old X    -DE/DX   Delta X   Delta X   Delta X     New X
                                 (Linear)    (Quad)   (Total)
    R1        2.47554   0.01443   0.00000   0.03181   0.03181   2.50735
    R2        2.47554   0.01443   0.00000   0.03181   0.03181   2.50735
    A1        1.91114  -0.08077   0.00000  -0.29661  -0.29661   1.61453
         Item               Value     Threshold  Converged?
 Maximum Force            0.080767     0.000450     NO 
 RMS     Force            0.048097     0.000300     NO 
 Maximum Displacement     0.230443     0.001800     NO 
 RMS     Displacement     0.223981     0.001200     NO 
 Predicted change in Energy=-1.754295D-02
 GradGradGradGradGradGradGradGradGradGradGradGradGradGradGradGradGradGrad

                          Input orientation:                          
 ---------------------------------------------------------------------
 Center     Atomic      Atomic             Coordinates (Angstroms)
 Number     Number       Type             X           Y           Z
 ---------------------------------------------------------------------
      1         16           0       -1.173218    1.128337    0.000000
      2          1           0        0.139050    1.324392    0.000000
      3          1           0       -1.426453    2.430780    0.000000
 ---------------------------------------------------------------------
                    Distance matrix (angstroms):
                    1          2          3
     1  S    0.000000
     2  H    1.326833   0.000000
     3  H    1.326833   1.917002   0.000000
 Stoichiometry    H2S
 Framework group  C2V[C2(S),SGV(H2)]
 Deg. of freedom     2
 Full point group                 C2V     NOp   4
 Largest Abelian subgroup         C2V     NOp   4
 Largest concise Abelian subgroup C2      NOp   2
                         Standard orientation:                         
 ---------------------------------------------------------------------
 Center     Atomic      Atomic             Coordinates (Angstroms)
 Number     Number       Type             X           Y           Z
 ---------------------------------------------------------------------
      1         16           0        0.000000    0.000000    0.101942
      2          1           0        0.000000    0.958501   -0.815534
      3          1           0        0.000000   -0.958501   -0.815534
 ---------------------------------------------------------------------
 Rotational constants (GHZ):    316.6391773    272.9083828    146.5759366
 Standard basis: STO-3G (5D, 7F)
 There are     6 symmetry adapted cartesian basis functions of A1  symmetry.
 There are     0 symmetry adapted cartesian basis functions of A2  symmetry.
 There are     2 symmetry adapted cartesian basis functions of B1  symmetry.
 There are     3 symmetry adapted cartesian basis functions of B2  symmetry.
 There are     6 symmetry adapted basis functions of A1  symmetry.
 There are     0 symmetry adapted basis functions of A2  symmetry.
 There are     2 symmetry adapted basis functions of B1  symmetry.
 There are     3 symmetry adapted basis functions of B2  symmetry.
    11 basis functions,    33 primitive gaussians,    11 cartesian basis functions
     9 alpha electrons        9 beta electrons
       nuclear repulsion energy        13.0385202327 Hartrees.
 NAtoms=    3 NActive=    3 NUniq=    2 SFac= 2.25D+00 NAtFMM=   60 NAOKFM=F Big=F
 Integral buffers will be    131072 words long.
 Raffenetti 1 integral format.
 Two-electron integral symmetry is turned on.
 One-electron integrals computed using PRISM.
 NBasis=    11 RedAO= T EigKep=  4.43D-01  NBF=     6     0     2     3
 NBsUse=    11 1.00D-06 EigRej= -1.00D+00 NBFU=     6     0     2     3
 Initial guess from the checkpoint file:  "h2s_monomer.chk"
 B after Tr=     0.000000    0.000000    0.000000
         Rot=    1.000000    0.000000    0.000000    0.000000 Ang=   0.00 deg.
 Initial guess orbital symmetries:
       Occupied  (A1) (A1) (B2) (A1) (B1) (A1) (B2) (A1) (B1)
       Virtual   (A1) (B2)
 ExpMin= 1.69D-01 ExpMax= 5.33D+02 ExpMxC= 5.33D+02 IAcc=1 IRadAn=         1 AccDes= 0.00D+00
 Harris functional with IExCor=  205 and IRadAn=       1 diagonalized for initial guess.
 HarFok:  IExCor=  205 AccDes= 0.00D+00 IRadAn=         1 IDoV= 1 UseB2=F ITyADJ=14
 ICtDFT=  3500011 ScaDFX=  1.000000  1.000000  1.000000  1.000000
 FoFCou: FMM=F IPFlag=           0 FMFlag=      100000 FMFlg1=           0
         NFxFlg=           0 DoJE=T BraDBF=F KetDBF=T FulRan=T
         wScrn=  0.000000 ICntrl=     500 IOpCl=  0 I1Cent=   200000004 NGrid=           0
         NMat0=    1 NMatS0=      1 NMatT0=    0 NMatD0=    1 NMtDS0=    0 NMtDT0=    0
 Petite list used in FoFCou.
 Keep R1 ints in memory in symmetry-blocked form, NReq=825876.
 Requested convergence on RMS density matrix=1.00D-08 within 128 cycles.
 Requested convergence on MAX density matrix=1.00D-06.
 Requested convergence on             energy=1.00D-06.
 No special actions if energy rises.
 SCF Done:  E(RHF) =  -394.311625299     A.U. after    7 cycles
            NFock=  7  Conv=0.38D-08     -V/T= 2.0119
 Calling FoFJK, ICntrl=      2127 FMM=F ISym2X=1 I1Cent= 0 IOpClX= 0 NMat=1 NMatS=1 NMatT=0.
 ***** Axes restored to original set *****
 -------------------------------------------------------------------
 Center     Atomic                   Forces (Hartrees/Bohr)
 Number     Number              X              Y              Z
 -------------------------------------------------------------------
      1       16          -0.001048784   -0.001483995    0.000000000
      2        1           0.001370254    0.000144201    0.000000000
      3        1          -0.000321470    0.001339794    0.000000000
 -------------------------------------------------------------------
 Cartesian Forces:  Max     0.001483995 RMS     0.000888130

 GradGradGradGradGradGradGradGradGradGradGradGradGradGradGradGradGradGrad
 Berny optimization.
 Using GEDIIS/GDIIS optimizer.
 FormGI is forming the generalized inverse of G from B-inverse, IUseBI=4.
 Internal  Forces:  Max     0.001376521 RMS     0.001127259
 Search for a local minimum.
 Step number   2 out of a maximum of   20
 All quantities printed in internal units (Hartrees-Bohrs-Radians)
 Mixed Optimization -- RFO/linear search
 Update second derivatives using D2CorX and points    1    2
 DE= -1.28D-02 DEPred=-1.75D-02 R= 7.31D-01
 TightC=F SS=  1.41D+00  RLast= 3.00D-01 DXNew= 5.0454D-01 9.0000D-01
 Trust test= 7.31D-01 RLast= 3.00D-01 DXMaxT set to 5.05D-01
 The second derivative matrix:
                          R1        R2        A1
           R1           0.29083
           R2           0.00107   0.29083
           A1          -0.01271  -0.01271   0.27008
 ITU=  1  0
 Use linear search instead of GDIIS.
     Eigenvalues ---    0.25996   0.28975   0.30202
 RFO step:  Lambda=-1.31911658D-05 EMin= 2.59960926D-01
 Quartic linear search produced a step of  0.00159.
 Iteration  1 RMS(Cart)=  0.00371464 RMS(Int)=  0.00000117
 Iteration  2 RMS(Cart)=  0.00000160 RMS(Int)=  0.00000000
 Iteration  3 RMS(Cart)=  0.00000000 RMS(Int)=  0.00000000
 ClnCor:  largest displacement from symmetrization is 3.34D-14 for atom     3.
 Variable       Old X    -DE/DX   Delta X   Delta X   Delta X     New X
                                 (Linear)    (Quad)   (Total)
    R1        2.50735   0.00138   0.00005   0.00471   0.00476   2.51211
    R2        2.50735   0.00138   0.00005   0.00471   0.00476   2.51211
    A1        1.61453   0.00015  -0.00047   0.00152   0.00105   1.61557
         Item               Value     Threshold  Converged?
 Maximum Force            0.001377     0.000450     NO 
 RMS     Force            0.001127     0.000300     NO 
 Maximum Displacement     0.003999     0.001800     NO 
 RMS     Displacement     0.003716     0.001200     NO 
 Predicted change in Energy=-6.626605D-06
 GradGradGradGradGradGradGradGradGradGradGradGradGradGradGradGradGradGrad

                          Input orientation:                          
 ---------------------------------------------------------------------
 Center     Atomic      Atomic             Coordinates (Angstroms)
 Number     Number       Type             X           Y           Z
 ---------------------------------------------------------------------
      1         16           0       -1.173694    1.127664    0.000000
      2          1           0        0.141167    1.323401    0.000000
      3          1           0       -1.428093    2.432444    0.000000
 ---------------------------------------------------------------------
                    Distance matrix (angstroms):
                    1          2          3
     1  S    0.000000
     2  H    1.329350   0.000000
     3  H    1.329350   1.921601   0.000000
 Stoichiometry    H2S
 Framework group  C2V[C2(S),SGV(H2)]
 Deg. of freedom     2
 Full point group                 C2V     NOp   4
 Largest Abelian subgroup         C2V     NOp   4
 Largest concise Abelian subgroup C2      NOp   2
                         Standard orientation:                         
 ---------------------------------------------------------------------
 Center     Atomic      Atomic             Coordinates (Angstroms)
 Number     Number       Type             X           Y           Z
 ---------------------------------------------------------------------
      1         16           0        0.000000    0.000000    0.102079
      2          1           0        0.000000    0.960801   -0.816634
      3          1           0        0.000000   -0.960801   -0.816634
 ---------------------------------------------------------------------
 Rotational constants (GHZ):    315.7866831    271.6035409    146.0166986
 Standard basis: STO-3G (5D, 7F)
 There are     6 symmetry adapted cartesian basis functions of A1  symmetry.
 There are     0 symmetry adapted cartesian basis functions of A2  symmetry.
 There are     2 symmetry adapted cartesian basis functions of B1  symmetry.
 There are     3 symmetry adapted cartesian basis functions of B2  symmetry.
 There are     6 symmetry adapted basis functions of A1  symmetry.
 There are     0 symmetry adapted basis functions of A2  symmetry.
 There are     2 symmetry adapted basis functions of B1  symmetry.
 There are     3 symmetry adapted basis functions of B2  symmetry.
    11 basis functions,    33 primitive gaussians,    11 cartesian basis functions
     9 alpha electrons        9 beta electrons
       nuclear repulsion energy        13.0136929949 Hartrees.
 NAtoms=    3 NActive=    3 NUniq=    2 SFac= 2.25D+00 NAtFMM=   60 NAOKFM=F Big=F
 Integral buffers will be    131072 words long.
 Raffenetti 1 integral format.
 Two-electron integral symmetry is turned on.
 One-electron integrals computed using PRISM.
 NBasis=    11 RedAO= T EigKep=  4.45D-01  NBF=     6     0     2     3
 NBsUse=    11 1.00D-06 EigRej= -1.00D+00 NBFU=     6     0     2     3
 Initial guess from the checkpoint file:  "h2s_monomer.chk"
 B after Tr=     0.000000    0.000000    0.000000
         Rot=    1.000000    0.000000    0.000000    0.000000 Ang=   0.00 deg.
 Initial guess orbital symmetries:
       Occupied  (A1) (A1) (B2) (A1) (B1) (A1) (B2) (A1) (B1)
       Virtual   (A1) (B2)
 Keep R1 ints in memory in symmetry-blocked form, NReq=825876.
 Requested convergence on RMS density matrix=1.00D-08 within 128 cycles.
 Requested convergence on MAX density matrix=1.00D-06.
 Requested convergence on             energy=1.00D-06.
 No special actions if energy rises.
 SCF Done:  E(RHF) =  -394.311629288     A.U. after    6 cycles
            NFock=  6  Conv=0.31D-09     -V/T= 2.0119
 Calling FoFJK, ICntrl=      2127 FMM=F ISym2X=1 I1Cent= 0 IOpClX= 0 NMat=1 NMatS=1 NMatT=0.
 ***** Axes restored to original set *****
 -------------------------------------------------------------------
 Center     Atomic                   Forces (Hartrees/Bohr)
 Number     Number              X              Y              Z
 -------------------------------------------------------------------
      1       16           0.000341691    0.000483482    0.000000000
      2        1          -0.000533091    0.000014269    0.000000000
      3        1           0.000191400   -0.000497751    0.000000000
 -------------------------------------------------------------------
 Cartesian Forces:  Max     0.000533091 RMS     0.000319598

 GradGradGradGradGradGradGradGradGradGradGradGradGradGradGradGradGradGrad
 Berny optimization.
 Using GEDIIS/GDIIS optimizer.
 FormGI is forming the generalized inverse of G from B-inverse, IUseBI=4.
 Internal  Forces:  Max     0.000525179 RMS     0.000449351
 Search for a local minimum.
 Step number   3 out of a maximum of   20
 All quantities printed in internal units (Hartrees-Bohrs-Radians)
 Mixed Optimization -- En-DIIS/RFO-DIIS
 Update second derivatives using D2CorX and points    1    2    3
 DE= -3.99D-06 DEPred=-6.63D-06 R= 6.02D-01
 TightC=F SS=  1.41D+00  RLast= 6.81D-03 DXNew= 8.4853D-01 2.0425D-02
 Trust test= 6.02D-01 RLast= 6.81D-03 DXMaxT set to 5.05D-01
 The second derivative matrix:
                          R1        R2        A1
           R1           0.34368
           R2           0.05392   0.34368
           A1           0.00992   0.00992   0.27526
 ITU=  1  1  0
 Use linear search instead of GDIIS.
     Eigenvalues ---    0.27367   0.28975   0.39919
 RFO step:  Lambda=-5.77351359D-08 EMin= 2.73673103D-01
 Quartic linear search produced a step of -0.28449.
 Iteration  1 RMS(Cart)=  0.00130915 RMS(Int)=  0.00000027
 Iteration  2 RMS(Cart)=  0.00000028 RMS(Int)=  0.00000000
 ClnCor:  largest displacement from symmetrization is 9.78D-14 for atom     3.
 Variable       Old X    -DE/DX   Delta X   Delta X   Delta X     New X
                                 (Linear)    (Quad)   (Total)
    R1        2.51211  -0.00053  -0.00135   0.00005  -0.00131   2.51080
    R2        2.51211  -0.00053  -0.00135   0.00005  -0.00131   2.51080
    A1        1.61557  -0.00023  -0.00030  -0.00045  -0.00075   1.61482
         Item               Value     Threshold  Converged?
 Maximum Force            0.000525     0.000450     NO 
 RMS     Force            0.000449     0.000300     NO 
 Maximum Displacement     0.001348     0.001800     YES
 RMS     Displacement     0.001309     0.001200     NO 
 Predicted change in Energy=-7.712265D-07
 GradGradGradGradGradGradGradGradGradGradGradGradGradGradGradGradGradGrad

                          Input orientation:                          
 ---------------------------------------------------------------------
 Center     Atomic      Atomic             Coordinates (Angstroms)
 Number     Number       Type             X           Y           Z
 ---------------------------------------------------------------------
      1         16           0       -1.173649    1.127727    0.000000
      2          1           0        0.140453    1.323857    0.000000
      3          1           0       -1.427425    2.431924    0.000000
 ---------------------------------------------------------------------
                    Distance matrix (angstroms):
                    1          2          3
     1  S    0.000000
     2  H    1.328658   0.000000
     3  H    1.328658   1.919910   0.000000
 Stoichiometry    H2S
 Framework group  C2V[C2(S),SGV(H2)]
 Deg. of freedom     2
 Full point group                 C2V     NOp   4
 Largest Abelian subgroup         C2V     NOp   4
 Largest concise Abelian subgroup C2      NOp   2
                         Standard orientation:                         
 ---------------------------------------------------------------------
 Center     Atomic      Atomic             Coordinates (Angstroms)
 Number     Number       Type             X           Y           Z
 ---------------------------------------------------------------------
      1         16           0        0.000000    0.000000    0.102066
      2          1           0        0.000000    0.959955   -0.816530
      3          1           0        0.000000   -0.959955   -0.816530
 ---------------------------------------------------------------------
 Rotational constants (GHZ):    315.8670480    272.0822962    146.1721704
 Standard basis: STO-3G (5D, 7F)
 There are     6 symmetry adapted cartesian basis functions of A1  symmetry.
 There are     0 symmetry adapted cartesian basis functions of A2  symmetry.
 There are     2 symmetry adapted cartesian basis functions of B1  symmetry.
 There are     3 symmetry adapted cartesian basis functions of B2  symmetry.
 There are     6 symmetry adapted basis functions of A1  symmetry.
 There are     0 symmetry adapted basis functions of A2  symmetry.
 There are     2 symmetry adapted basis functions of B1  symmetry.
 There are     3 symmetry adapted basis functions of B2  symmetry.
    11 basis functions,    33 primitive gaussians,    11 cartesian basis functions
     9 alpha electrons        9 beta electrons
       nuclear repulsion energy        13.0205691567 Hartrees.
 NAtoms=    3 NActive=    3 NUniq=    2 SFac= 2.25D+00 NAtFMM=   60 NAOKFM=F Big=F
 Integral buffers will be    131072 words long.
 Raffenetti 1 integral format.
 Two-electron integral symmetry is turned on.
 One-electron integrals computed using PRISM.
 NBasis=    11 RedAO= T EigKep=  4.44D-01  NBF=     6     0     2     3
 NBsUse=    11 1.00D-06 EigRej= -1.00D+00 NBFU=     6     0     2     3
 Initial guess from the checkpoint file:  "h2s_monomer.chk"
 B after Tr=     0.000000    0.000000    0.000000
         Rot=    1.000000    0.000000    0.000000    0.000000 Ang=   0.00 deg.
 Initial guess orbital symmetries:
       Occupied  (A1) (A1) (B2) (A1) (B1) (A1) (B2) (A1) (B1)
       Virtual   (A1) (B2)
 Keep R1 ints in memory in symmetry-blocked form, NReq=825876.
 Requested convergence on RMS density matrix=1.00D-08 within 128 cycles.
 Requested convergence on MAX density matrix=1.00D-06.
 Requested convergence on             energy=1.00D-06.
 No special actions if energy rises.
 SCF Done:  E(RHF) =  -394.311630060     A.U. after    5 cycles
            NFock=  5  Conv=0.57D-08     -V/T= 2.0119
 Calling FoFJK, ICntrl=      2127 FMM=F ISym2X=1 I1Cent= 0 IOpClX= 0 NMat=1 NMatS=1 NMatT=0.
 ***** Axes restored to original set *****
 -------------------------------------------------------------------
 Center     Atomic                   Forces (Hartrees/Bohr)
 Number     Number              X              Y              Z
 -------------------------------------------------------------------
      1       16           0.000005276    0.000007466    0.000000000
      2        1          -0.000000602   -0.000005172    0.000000000
      3        1          -0.000004675   -0.000002294    0.000000000
 -------------------------------------------------------------------
 Cartesian Forces:  Max     0.000007466 RMS     0.000003913

 GradGradGradGradGradGradGradGradGradGradGradGradGradGradGradGradGradGrad
 Berny optimization.
 Using GEDIIS/GDIIS optimizer.
 FormGI is forming the generalized inverse of G from B-inverse, IUseBI=4.
 Internal  Forces:  Max     0.000012621 RMS     0.000007371
 Search for a local minimum.
 Step number   4 out of a maximum of   20
 All quantities printed in internal units (Hartrees-Bohrs-Radians)
 Mixed Optimization -- En-DIIS/RFO-DIIS
 Swapping is turned off.
 Update second derivatives using D2CorX and points    1    2    3    4
 DE= -7.72D-07 DEPred=-7.71D-07 R= 1.00D+00
 Trust test= 1.00D+00 RLast= 2.00D-03 DXMaxT set to 5.05D-01
 The second derivative matrix:
                          R1        R2        A1
           R1           0.34132
           R2           0.05156   0.34132
           A1           0.01345   0.01345   0.27915
 ITU=  0  1  1  0
     Eigenvalues ---    0.27605   0.28975   0.39598
 En-DIIS/RFO-DIIS IScMMF=        0 using points:     4    3
 RFO step:  Lambda= 0.00000000D+00.
 DidBck=F Rises=F RFO-DIIS coefs:    0.99617    0.00383
 Iteration  1 RMS(Cart)=  0.00003625 RMS(Int)=  0.00000000
 Iteration  2 RMS(Cart)=  0.00000000 RMS(Int)=  0.00000000
 ClnCor:  largest displacement from symmetrization is 1.93D-13 for atom     3.
 Variable       Old X    -DE/DX   Delta X   Delta X   Delta X     New X
                                 (Linear)    (Quad)   (Total)
    R1        2.51080   0.00000   0.00001  -0.00001  -0.00001   2.51079
    R2        2.51080   0.00000   0.00001  -0.00001  -0.00001   2.51079
    A1        1.61482   0.00001   0.00000   0.00004   0.00005   1.61487
         Item               Value     Threshold  Converged?
 Maximum Force            0.000013     0.000450     YES
 RMS     Force            0.000007     0.000300     YES
 Maximum Displacement     0.000038     0.001800     YES
 RMS     Displacement     0.000036     0.001200     YES
 Predicted change in Energy=-2.951980D-10
 Optimization completed.
    -- Stationary point found.
                           ----------------------------
                           !   Optimized Parameters   !
                           ! (Angstroms and Degrees)  !
 --------------------------                            --------------------------
 ! Name  Definition              Value          Derivative Info.                !
 --------------------------------------------------------------------------------
 ! R1    R(1,2)                  1.3287         -DE/DX =    0.0                 !
 ! R2    R(1,3)                  1.3287         -DE/DX =    0.0                 !
 ! A1    A(2,1,3)               92.5225         -DE/DX =    0.0                 !
 --------------------------------------------------------------------------------
 GradGradGradGradGradGradGradGradGradGradGradGradGradGradGradGradGradGrad

                          Input orientation:                          
 ---------------------------------------------------------------------
 Center     Atomic      Atomic             Coordinates (Angstroms)
 Number     Number       Type             X           Y           Z
 ---------------------------------------------------------------------
      1         16           0       -1.173649    1.127727    0.000000
      2          1           0        0.140453    1.323857    0.000000
      3          1           0       -1.427425    2.431924    0.000000
 ---------------------------------------------------------------------
                    Distance matrix (angstroms):
                    1          2          3
     1  S    0.000000
     2  H    1.328658   0.000000
     3  H    1.328658   1.919910   0.000000
 Stoichiometry    H2S
 Framework group  C2V[C2(S),SGV(H2)]
 Deg. of freedom     2
 Full point group                 C2V     NOp   4
 Largest Abelian subgroup         C2V     NOp   4
 Largest concise Abelian subgroup C2      NOp   2
                         Standard orientation:                         
 ---------------------------------------------------------------------
 Center     Atomic      Atomic             Coordinates (Angstroms)
 Number     Number       Type             X           Y           Z
 ---------------------------------------------------------------------
      1         16           0        0.000000    0.000000    0.102066
      2          1           0        0.000000    0.959955   -0.816530
      3          1           0        0.000000   -0.959955   -0.816530
 ---------------------------------------------------------------------
 Rotational constants (GHZ):    315.8670480    272.0822962    146.1721704

 **********************************************************************

            Population analysis using the SCF density.

 **********************************************************************

 Orbital symmetries:
       Occupied  (A1) (A1) (B2) (A1) (B1) (A1) (B2) (A1) (B1)
       Virtual   (B2) (A1)
 The electronic state is 1-A1.
 Alpha  occ. eigenvalues --  -90.74542  -8.64793  -6.28045  -6.27828  -6.27478
 Alpha  occ. eigenvalues --   -0.89817  -0.50720  -0.39455  -0.27807
 Alpha virt. eigenvalues --    0.47305   0.54345
          Condensed to atoms (all electrons):
               1          2          3
     1  S   15.377590   0.275189   0.275189
     2  H    0.275189   0.780657  -0.019829
     3  H    0.275189  -0.019829   0.780657
 Mulliken charges:
               1
     1  S    0.072032
     2  H   -0.036016
     3  H   -0.036016
 Sum of Mulliken charges =   0.00000
 Mulliken charges with hydrogens summed into heavy atoms:
               1
     1  S    0.000000
 Electronic spatial extent (au):  <R**2>=             39.2157
 Charge=              0.0000 electrons
 Dipole moment (field-independent basis, Debye):
    X=              0.0000    Y=              0.0000    Z=             -1.0266  Tot=              1.0266
 Quadrupole moment (field-independent basis, Debye-Ang):
   XX=            -13.2025   YY=            -11.3966   ZZ=            -12.0895
   XY=              0.0000   XZ=              0.0000   YZ=              0.0000
 Traceless Quadrupole moment (field-independent basis, Debye-Ang):
   XX=             -0.9730   YY=              0.8329   ZZ=              0.1400
   XY=              0.0000   XZ=              0.0000   YZ=              0.0000
 Octapole moment (field-independent basis, Debye-Ang**2):
  XXX=              0.0000  YYY=              0.0000  ZZZ=              0.1936  XYY=              0.0000
  XXY=              0.0000  XXZ=             -0.0325  XZZ=              0.0000  YZZ=              0.0000
  YYZ=              0.1790  XYZ=              0.0000
 Hexadecapole moment (field-independent basis, Debye-Ang**3):
 XXXX=            -11.6096 YYYY=            -18.5905 ZZZZ=            -17.4653 XXXY=              0.0000
 XXXZ=              0.0000 YYYX=              0.0000 YYYZ=              0.0000 ZZZX=              0.0000
 ZZZY=              0.0000 XXYY=             -5.1143 XXZZ=             -4.9397 YYZZ=             -5.7075
 XXYZ=              0.0000 YYXZ=              0.0000 ZZXY=              0.0000
 N-N= 1.302056915672D+01 E-N=-9.637385576489D+02  KE= 3.896838685207D+02
 Symmetry A1   KE= 3.172474894552D+02
 Symmetry A2   KE= 0.000000000000D+00
 Symmetry B1   KE= 3.731620150423D+01
 Symmetry B2   KE= 3.512017756121D+01
 1\1\GINC-MAYANK-HP\FOpt\RHF\STO-3G\H2S1\MAYANK\19-Feb-2025\0\\# opt fr
 eq hf/sto-3g geom=connectivity\\Title Card Required\\0,1\S,-1.17364892
 23,1.1277272555,0.\H,0.140453451,1.3238574244,0.\H,-1.4274248826,2.431
 92427,0.\\Version=AM64L-G09RevD.01\State=1-A1\HF=-394.3116301\RMSD=5.6
 86e-09\RMSF=3.913e-06\Dipole=0.2331166,0.3298523,0.\Quadrupole=0.44767
 92,0.2757146,-0.7233938,-0.2428065,0.,0.\PG=C02V [C2(S1),SGV(H2)]\\@


 WHAT THE SLIME CONTAINS, THE GLOWING REVEALS
 BY THE FLAME'S BRIGHT HUE WHEN YOU IGNITE IT.
   --  LEONARD THURNEYSSER, 1531-1596
 DESCRIBING HIS FLAME PHOTOLYSIS ANALYTIC METHOD
 Job cpu time:       0 days  0 hours  0 minutes  1.7 seconds.
 File lengths (MBytes):  RWF=      5 Int=      0 D2E=      0 Chk=      1 Scr=      1
 Normal termination of Gaussian 09 at Wed Feb 19 03:02:09 2025.
 Link1:  Proceeding to internal job step number  2.
 ---------------------------------------------------------------
 #N Geom=AllCheck Guess=TCheck SCRF=Check GenChk RHF/STO-3G Freq
 ---------------------------------------------------------------
 1/10=4,29=7,30=1,38=1,40=1/1,3;
 2/12=2,40=1/2;
 3/6=3,11=1,14=-4,16=1,25=1,30=1,70=2,71=2,116=1,140=1/1,2,3;
 4/5=101/1;
 5/5=2,98=1/2;
 8/6=4,10=90,11=11/1;
 10/13=10,15=4/2;
 11/6=3,8=1,9=11,15=111,16=1/1,2,10;
 10/6=1/2;
 6/7=2,8=2,9=2,10=2,18=1,28=1/1;
 7/8=1,10=1,25=1/1,2,3,16;
 1/10=4,30=1/3;
 99//99;
 Structure from the checkpoint file:  "h2s_monomer.chk"
 -------------------
 Title Card Required
 -------------------
 Charge =  0 Multiplicity = 1
 Redundant internal coordinates found in file.
 S,0,-1.1736489223,1.1277272555,0.
 H,0,0.140453451,1.3238574244,0.
 H,0,-1.4274248826,2.43192427,0.
 Recover connectivity data from disk.

 GradGradGradGradGradGradGradGradGradGradGradGradGradGradGradGradGradGrad
 Berny optimization.
 Initialization pass.
                           ----------------------------
                           !    Initial Parameters    !
                           ! (Angstroms and Degrees)  !
 --------------------------                            --------------------------
 ! Name  Definition              Value          Derivative Info.                !
 --------------------------------------------------------------------------------
 ! R1    R(1,2)                  1.3287         calculate D2E/DX2 analytically  !
 ! R2    R(1,3)                  1.3287         calculate D2E/DX2 analytically  !
 ! A1    A(2,1,3)               92.5225         calculate D2E/DX2 analytically  !
 --------------------------------------------------------------------------------
 Trust Radius=3.00D-01 FncErr=1.00D-07 GrdErr=1.00D-07
 Number of steps in this run=      2 maximum allowed number of steps=      2.
 GradGradGradGradGradGradGradGradGradGradGradGradGradGradGradGradGradGrad

                          Input orientation:                          
 ---------------------------------------------------------------------
 Center     Atomic      Atomic             Coordinates (Angstroms)
 Number     Number       Type             X           Y           Z
 ---------------------------------------------------------------------
      1         16           0       -1.173649    1.127727    0.000000
      2          1           0        0.140453    1.323857    0.000000
      3          1           0       -1.427425    2.431924    0.000000
 ---------------------------------------------------------------------
                    Distance matrix (angstroms):
                    1          2          3
     1  S    0.000000
     2  H    1.328658   0.000000
     3  H    1.328658   1.919910   0.000000
 Stoichiometry    H2S
 Framework group  C2V[C2(S),SGV(H2)]
 Deg. of freedom     2
 Full point group                 C2V     NOp   4
 Largest Abelian subgroup         C2V     NOp   4
 Largest concise Abelian subgroup C2      NOp   2
                         Standard orientation:                         
 ---------------------------------------------------------------------
 Center     Atomic      Atomic             Coordinates (Angstroms)
 Number     Number       Type             X           Y           Z
 ---------------------------------------------------------------------
      1         16           0        0.000000    0.000000    0.102066
      2          1           0        0.000000    0.959955   -0.816530
      3          1           0        0.000000   -0.959955   -0.816530
 ---------------------------------------------------------------------
 Rotational constants (GHZ):    315.8670480    272.0822962    146.1721704
 Standard basis: STO-3G (5D, 7F)
 There are     6 symmetry adapted cartesian basis functions of A1  symmetry.
 There are     0 symmetry adapted cartesian basis functions of A2  symmetry.
 There are     2 symmetry adapted cartesian basis functions of B1  symmetry.
 There are     3 symmetry adapted cartesian basis functions of B2  symmetry.
 There are     6 symmetry adapted basis functions of A1  symmetry.
 There are     0 symmetry adapted basis functions of A2  symmetry.
 There are     2 symmetry adapted basis functions of B1  symmetry.
 There are     3 symmetry adapted basis functions of B2  symmetry.
    11 basis functions,    33 primitive gaussians,    11 cartesian basis functions
     9 alpha electrons        9 beta electrons
       nuclear repulsion energy        13.0205691567 Hartrees.
 NAtoms=    3 NActive=    3 NUniq=    2 SFac= 2.25D+00 NAtFMM=   60 NAOKFM=F Big=F
 Integral buffers will be    131072 words long.
 Raffenetti 1 integral format.
 Two-electron integral symmetry is turned on.
 One-electron integrals computed using PRISM.
 NBasis=    11 RedAO= T EigKep=  4.44D-01  NBF=     6     0     2     3
 NBsUse=    11 1.00D-06 EigRej= -1.00D+00 NBFU=     6     0     2     3
 Initial guess from the checkpoint file:  "h2s_monomer.chk"
 B after Tr=     0.000000    0.000000    0.000000
         Rot=    1.000000    0.000000    0.000000    0.000000 Ang=   0.00 deg.
 Initial guess orbital symmetries:
       Occupied  (A1) (A1) (B2) (A1) (B1) (A1) (B2) (A1) (B1)
       Virtual   (B2) (A1)
 Keep R1 ints in memory in symmetry-blocked form, NReq=825876.
 Requested convergence on RMS density matrix=1.00D-08 within 128 cycles.
 Requested convergence on MAX density matrix=1.00D-06.
 Requested convergence on             energy=1.00D-06.
 No special actions if energy rises.
 SCF Done:  E(RHF) =  -394.311630060     A.U. after    1 cycles
            NFock=  1  Conv=0.12D-09     -V/T= 2.0119
 Range of M.O.s used for correlation:     1    11
 NBasis=    11 NAE=     9 NBE=     9 NFC=     0 NFV=     0
 NROrb=     11 NOA=     9 NOB=     9 NVA=     2 NVB=     2
          Differentiating once with respect to electric field.
                with respect to dipole field.
          Electric field/nuclear overlap derivatives assumed to be zero.
 Keep R1 ints in memory in symmetry-blocked form, NReq=807404.
          There are     3 degrees of freedom in the 1st order CPHF.  IDoFFX=0 NUNeed=     3.
      3 vectors produced by pass  0 Test12= 6.00D-16 3.33D-08 XBig12= 2.17D+00 1.16D+00.
 AX will form     3 AO Fock derivatives at one time.
      3 vectors produced by pass  1 Test12= 6.00D-16 3.33D-08 XBig12= 4.41D-03 5.78D-02.
      2 vectors produced by pass  2 Test12= 6.00D-16 3.33D-08 XBig12= 2.14D-05 2.90D-03.
      2 vectors produced by pass  3 Test12= 6.00D-16 3.33D-08 XBig12= 1.48D-07 2.44D-04.
      2 vectors produced by pass  4 Test12= 6.00D-16 3.33D-08 XBig12= 6.18D-12 1.80D-06.
 InvSVY:  IOpt=1 It=  1 EMax= 5.55D-17
 Solved reduced A of dimension    12 with     3 vectors.
 End of Minotr F.D. properties file   721 does not exist.
 End of Minotr F.D. properties file   722 does not exist.
 End of Minotr F.D. properties file   788 does not exist.
 Symmetrizing basis deriv contribution to polar:
 IMax=3 JMax=2 DiffMx= 0.00D+00
 G2DrvN: will do     4 centers at a time, making    1 passes.
 PxScal for G2LodP:  IOpCl= 0 ISclPx=1 IMOff=     1 NMtTot=     4 NTT=      66 ScalPx= 1.56D+00
 Calling FoFCou, ICntrl=  3107 FMM=F I1Cent=   0 AccDes= 0.00D+00.
 End of G2Drv F.D. properties file   721 does not exist.
 End of G2Drv F.D. properties file   722 does not exist.
 End of G2Drv F.D. properties file   788 does not exist.
          IDoAtm=111
          Differentiating once with respect to electric field.
                with respect to dipole field.
          Differentiating once with respect to nuclear coordinates.
 Keep R1 ints in memory in symmetry-blocked form, NReq=807474.
          There are     9 degrees of freedom in the 1st order CPHF.  IDoFFX=4 NUNeed=     9.
 Will reuse    3 saved solutions.
      6 vectors produced by pass  0 Test12= 2.00D-16 1.11D-08 XBig12= 2.18D-02 1.48D-01.
 AX will form     6 AO Fock derivatives at one time.
      6 vectors produced by pass  1 Test12= 2.00D-16 1.11D-08 XBig12= 9.40D-06 2.34D-03.
      4 vectors produced by pass  2 Test12= 2.00D-16 1.11D-08 XBig12= 1.06D-08 6.47D-05.
      2 vectors produced by pass  3 Test12= 2.00D-16 1.11D-08 XBig12= 6.94D-14 2.57D-07.
 InvSVY:  IOpt=1 It=  1 EMax= 1.11D-16
 Solved reduced A of dimension    18 with     6 vectors.
 Isotropic polarizability for W=    0.000000        5.71 Bohr**3.
 End of Minotr F.D. properties file   721 does not exist.
 End of Minotr F.D. properties file   722 does not exist.
 End of Minotr F.D. properties file   788 does not exist.

 **********************************************************************

            Population analysis using the SCF density.

 **********************************************************************

 Orbital symmetries:
       Occupied  (A1) (A1) (B2) (A1) (B1) (A1) (B2) (A1) (B1)
       Virtual   (B2) (A1)
 The electronic state is 1-A1.
 Alpha  occ. eigenvalues --  -90.74542  -8.64793  -6.28045  -6.27828  -6.27478
 Alpha  occ. eigenvalues --   -0.89817  -0.50720  -0.39455  -0.27807
 Alpha virt. eigenvalues --    0.47305   0.54345
          Condensed to atoms (all electrons):
               1          2          3
     1  S   15.377590   0.275189   0.275189
     2  H    0.275189   0.780657  -0.019829
     3  H    0.275189  -0.019829   0.780657
 Mulliken charges:
               1
     1  S    0.072032
     2  H   -0.036016
     3  H   -0.036016
 Sum of Mulliken charges =   0.00000
 Mulliken charges with hydrogens summed into heavy atoms:
               1
     1  S    0.000000
 APT charges:
               1
     1  S    0.014578
     2  H   -0.007289
     3  H   -0.007289
 Sum of APT charges =   0.00000
 APT charges with hydrogens summed into heavy atoms:
               1
     1  S    0.000000
 Electronic spatial extent (au):  <R**2>=             39.2157
 Charge=              0.0000 electrons
 Dipole moment (field-independent basis, Debye):
    X=              0.0000    Y=              0.0000    Z=             -1.0266  Tot=              1.0266
 Quadrupole moment (field-independent basis, Debye-Ang):
   XX=            -13.2025   YY=            -11.3966   ZZ=            -12.0895
   XY=              0.0000   XZ=              0.0000   YZ=              0.0000
 Traceless Quadrupole moment (field-independent basis, Debye-Ang):
   XX=             -0.9730   YY=              0.8329   ZZ=              0.1400
   XY=              0.0000   XZ=              0.0000   YZ=              0.0000
 Octapole moment (field-independent basis, Debye-Ang**2):
  XXX=              0.0000  YYY=              0.0000  ZZZ=              0.1936  XYY=              0.0000
  XXY=              0.0000  XXZ=             -0.0325  XZZ=              0.0000  YZZ=              0.0000
  YYZ=              0.1790  XYZ=              0.0000
 Hexadecapole moment (field-independent basis, Debye-Ang**3):
 XXXX=            -11.6096 YYYY=            -18.5905 ZZZZ=            -17.4653 XXXY=              0.0000
 XXXZ=              0.0000 YYYX=              0.0000 YYYZ=              0.0000 ZZZX=              0.0000
 ZZZY=              0.0000 XXYY=             -5.1143 XXZZ=             -4.9397 YYZZ=             -5.7075
 XXYZ=              0.0000 YYXZ=              0.0000 ZZXY=              0.0000
 N-N= 1.302056915672D+01 E-N=-9.637385576522D+02  KE= 3.896838685224D+02
 Symmetry A1   KE= 3.172474894576D+02
 Symmetry A2   KE= 0.000000000000D+00
 Symmetry B1   KE= 3.731620150423D+01
 Symmetry B2   KE= 3.512017756057D+01
  Exact polarizability:   0.637   0.000   9.648   0.000   0.000   6.852
 Approx polarizability:   0.383   0.000   8.156   0.000   0.000   6.696
 Calling FoFJK, ICntrl=    100127 FMM=F ISym2X=1 I1Cent= 0 IOpClX= 0 NMat=1 NMatS=1 NMatT=0.
 Full mass-weighted force constant matrix:
 Low frequencies ---   -6.0037   -0.0045   -0.0039    0.0036    3.8213    8.5674
 Low frequencies --- 1609.7430 3274.6492 3322.6203
 Diagonal vibrational polarizability:
        0.0000000       0.0255185       0.2828176
 Diagonal vibrational hyperpolarizability:
        0.0000000       0.0000000       8.1388787
 Harmonic frequencies (cm**-1), IR intensities (KM/Mole), Raman scattering
 activities (A**4/AMU), depolarization ratios for plane and unpolarized
 incident light, reduced masses (AMU), force constants (mDyne/A),
 and normal coordinates:
                      1                      2                      3
                     A1                     A1                     B2
 Frequencies --   1609.7430              3274.6492              3322.6203
 Red. masses --      1.0386                 1.0367                 1.0399
 Frc consts  --      1.5856                 6.5497                 6.7641
 IR Inten    --     23.0688                17.2300                10.4685
 Raman Activ --     23.8708                76.9117                51.9459
 Depolar (P) --      0.7413                 0.1407                 0.7500
 Depolar (U) --      0.8514                 0.2466                 0.8571
  Atom  AN      X      Y      Z        X      Y      Z        X      Y      Z
     1  16     0.00   0.00   0.03     0.00   0.00   0.03     0.00   0.03   0.00
     2   1     0.00  -0.50  -0.50     0.00   0.51  -0.48     0.00  -0.51   0.49
     3   1     0.00   0.50  -0.50     0.00  -0.51  -0.48     0.00  -0.51  -0.49

 -------------------
 - Thermochemistry -
 -------------------
 Temperature   298.150 Kelvin.  Pressure   1.00000 Atm.
 Atom     1 has atomic number 16 and mass  31.97207
 Atom     2 has atomic number  1 and mass   1.00783
 Atom     3 has atomic number  1 and mass   1.00783
 Molecular mass:    33.98772 amu.
 Principal axes and moments of inertia in atomic units:
                           1         2         3
     Eigenvalues --     5.71361   6.63307  12.34668
           X            0.00000   0.00000   1.00000
           Y            1.00000   0.00000   0.00000
           Z            0.00000   1.00000   0.00000
 This molecule is an asymmetric top.
 Rotational symmetry number  2.
 Rotational temperatures (Kelvin)     15.15921    13.05788     7.01515
 Rotational constants (GHZ):         315.86705   272.08230   146.17217
 Zero-point vibrational energy      49088.8 (Joules/Mol)
                                   11.73251 (Kcal/Mol)
 Vibrational temperatures:   2316.06  4711.48  4780.50
          (Kelvin)
 
 Zero-point correction=                           0.018697 (Hartree/Particle)
 Thermal correction to Energy=                    0.021533
 Thermal correction to Enthalpy=                  0.022477
 Thermal correction to Gibbs Free Energy=        -0.000825
 Sum of electronic and zero-point Energies=           -394.292933
 Sum of electronic and thermal Energies=              -394.290097
 Sum of electronic and thermal Enthalpies=            -394.289153
 Sum of electronic and thermal Free Energies=         -394.312455
 
                     E (Thermal)             CV                S
                      KCal/Mol        Cal/Mol-Kelvin    Cal/Mol-Kelvin
 Total                   13.512              6.013             49.043
 Electronic               0.000              0.000              0.000
 Translational            0.889              2.981             36.501
 Rotational               0.889              2.981             12.534
 Vibrational             11.734              0.051              0.007
                       Q            Log10(Q)             Ln(Q)
 Total Bot       0.239632D+01          0.379545          0.873934
 Total V=0       0.953952D+09          8.979526         20.676123
 Vib (Bot)       0.251306D-08         -8.599798        -19.801766
 Vib (V=0)       0.100042D+01          0.000184          0.000423
 Electronic      0.100000D+01          0.000000          0.000000
 Translational   0.778822D+07          6.891438         15.868123
 Rotational      0.122435D+03          2.087904          4.807577
 ***** Axes restored to original set *****
 -------------------------------------------------------------------
 Center     Atomic                   Forces (Hartrees/Bohr)
 Number     Number              X              Y              Z
 -------------------------------------------------------------------
      1       16           0.000005277    0.000007466    0.000000000
      2        1          -0.000000602   -0.000005172    0.000000000
      3        1          -0.000004675   -0.000002294    0.000000000
 -------------------------------------------------------------------
 Cartesian Forces:  Max     0.000007466 RMS     0.000003913
 FormGI is forming the generalized inverse of G from B-inverse, IUseBI=4.

 GradGradGradGradGradGradGradGradGradGradGradGradGradGradGradGradGradGrad
 Berny optimization.
 Internal  Forces:  Max     0.000012621 RMS     0.000007371
 Search for a local minimum.
 Step number   1 out of a maximum of    2
 All quantities printed in internal units (Hartrees-Bohrs-Radians)
 Second derivative matrix not updated -- analytic derivatives used.
 The second derivative matrix:
                          R1        R2        A1
           R1           0.40244
           R2          -0.00520   0.40244
           A1           0.00697   0.00697   0.30195
 ITU=  0
     Eigenvalues ---    0.30094   0.39826   0.40764
 Angle between quadratic step and forces=   0.69 degrees.
 Linear search not attempted -- first point.
 Iteration  1 RMS(Cart)=  0.00003344 RMS(Int)=  0.00000000
 Iteration  2 RMS(Cart)=  0.00000000 RMS(Int)=  0.00000000
 ClnCor:  largest displacement from symmetrization is 8.79D-14 for atom     3.
 Variable       Old X    -DE/DX   Delta X   Delta X   Delta X     New X
                                 (Linear)    (Quad)   (Total)
    R1        2.51080   0.00000   0.00000   0.00000   0.00000   2.51080
    R2        2.51080   0.00000   0.00000   0.00000   0.00000   2.51080
    A1        1.61482   0.00001   0.00000   0.00004   0.00004   1.61486
         Item               Value     Threshold  Converged?
 Maximum Force            0.000013     0.000450     YES
 RMS     Force            0.000007     0.000300     YES
 Maximum Displacement     0.000035     0.001800     YES
 RMS     Displacement     0.000033     0.001200     YES
 Predicted change in Energy=-2.706509D-10
 Optimization completed.
    -- Stationary point found.
                           ----------------------------
                           !   Optimized Parameters   !
                           ! (Angstroms and Degrees)  !
 --------------------------                            --------------------------
 ! Name  Definition              Value          Derivative Info.                !
 --------------------------------------------------------------------------------
 ! R1    R(1,2)                  1.3287         -DE/DX =    0.0                 !
 ! R2    R(1,3)                  1.3287         -DE/DX =    0.0                 !
 ! A1    A(2,1,3)               92.5225         -DE/DX =    0.0                 !
 --------------------------------------------------------------------------------
 GradGradGradGradGradGradGradGradGradGradGradGradGradGradGradGradGradGrad

 1\1\GINC-MAYANK-HP\Freq\RHF\STO-3G\H2S1\MAYANK\19-Feb-2025\0\\#N Geom=
 AllCheck Guess=TCheck SCRF=Check GenChk RHF/STO-3G Freq\\Title Card Re
 quired\\0,1\S,-1.1736489223,1.1277272555,0.\H,0.140453451,1.3238574244
 ,0.\H,-1.4274248826,2.43192427,0.\\Version=AM64L-G09RevD.01\State=1-A1
 \HF=-394.3116301\RMSD=1.220e-10\RMSF=3.913e-06\ZeroPoint=0.018697\Ther
 mal=0.0215326\Dipole=0.2331166,0.3298523,0.\DipoleDeriv=0.0910417,0.13
 31933,0.,0.1331933,0.1853741,0.,0.,0.,-0.232683,-0.0934048,-0.0245002,
 0.,-0.1426062,-0.0448032,0.,0.,0.,0.1163415,0.002363,-0.108693,0.,0.00
 9413,-0.140571,0.,0.,0.,0.1163415\Polar=8.7166091,-1.3177779,7.7833098
 ,0.,0.,0.6368463\PolarDeriv=-6.8269962,-2.7834101,-0.267926,0.,0.,0.19
 22989,-1.6188818,-1.0909333,-8.420201,0.,0.,0.2720967,0.,0.,0.,-2.0663
 95,-2.9238813,0.,8.0778614,0.1162412,0.0668692,0.,0.,-0.0309699,1.1215
 455,2.7247302,0.6489671,0.,0.,-0.1821127,0.,0.,0.,3.0614797,0.0284925,
 0.,-1.2508653,2.6671689,0.2010569,0.,0.,-0.1613291,0.4973363,-1.633796
 9,7.7712339,0.,0.,-0.0899839,0.,0.,0.,-0.9950848,2.8953888,0.\HyperPol
 ar=17.1178216,2.3049824,-4.4994501,15.5496004,0.,0.,0.,-0.2703318,-0.3
 825106,0.\PG=C02V [C2(S1),SGV(H2)]\NImag=0\\0.43993683,0.02030832,0.45
 431994,0.,0.,0.00000527,-0.38679604,-0.04258818,0.,0.39552872,-0.09587
 367,-0.06033235,0.,0.04910528,0.05481129,0.,0.,-0.00000263,0.,0.,0.000
 00063,-0.05314079,0.02227985,0.,-0.00873267,0.04676839,0.,0.06187347,0
 .07556535,-0.39398760,0.,-0.00651710,0.00552105,0.,-0.06904824,0.38846
 654,0.,0.,-0.00000263,0.,0.,0.00000200,0.,0.,0.00000063\\-0.00000528,-
 0.00000747,0.,0.00000060,0.00000517,0.,0.00000467,0.00000229,0.\\\@


 WHAT THE SLIME CONTAINS, THE GLOWING REVEALS
 BY THE FLAME'S BRIGHT HUE WHEN YOU IGNITE IT.
   --  LEONARD THURNEYSSER, 1531-1596
 DESCRIBING HIS FLAME PHOTOLYSIS ANALYTIC METHOD
 Job cpu time:       0 days  0 hours  0 minutes  0.8 seconds.
 File lengths (MBytes):  RWF=      5 Int=      0 D2E=      0 Chk=      1 Scr=      1
 Normal termination of Gaussian 09 at Wed Feb 19 03:02:09 2025.
