 Entering Gaussian System, Link 0=g09
 Input=/home/mayank/Desktop/software/gaussian/Gview_and_Gaussian/g09/scratch/Q3/cyclohexane_boat.com
 Output=/home/mayank/Desktop/software/gaussian/Gview_and_Gaussian/g09/scratch/Q3/cyclohexane_boat.log
 Initial command:
 /home/mayank/Desktop/software/gaussian/Gview_and_Gaussian/g09/l1.exe "/home/mayank/Desktop/software/gaussian/Gview_and_Gaussian/g09/scratch/Gau-71535.inp" -scrdir="/home/mayank/Desktop/software/gaussian/Gview_and_Gaussian/g09/scratch/"
 Entering Link 1 = /home/mayank/Desktop/software/gaussian/Gview_and_Gaussian/g09/l1.exe PID=     71538.
  
 Copyright (c) 1988,1990,1992,1993,1995,1998,2003,2009,2013,
            Gaussian, Inc.  All Rights Reserved.
  
 This is part of the Gaussian(R) 09 program.  It is based on
 the Gaussian(R) 03 system (copyright 2003, Gaussian, Inc.),
 the Gaussian(R) 98 system (copyright 1998, Gaussian, Inc.),
 the Gaussian(R) 94 system (copyright 1995, Gaussian, Inc.),
 the Gaussian 92(TM) system (copyright 1992, Gaussian, Inc.),
 the Gaussian 90(TM) system (copyright 1990, Gaussian, Inc.),
 the Gaussian 88(TM) system (copyright 1988, Gaussian, Inc.),
 the Gaussian 86(TM) system (copyright 1986, Carnegie Mellon
 University), and the Gaussian 82(TM) system (copyright 1983,
 Carnegie Mellon University). Gaussian is a federally registered
 trademark of Gaussian, Inc.
  
 This software contains proprietary and confidential information,
 including trade secrets, belonging to Gaussian, Inc.
  
 This software is provided under written license and may be
 used, copied, transmitted, or stored only in accord with that
 written license.
  
 The following legend is applicable only to US Government
 contracts under FAR:
  
                    RESTRICTED RIGHTS LEGEND
  
 Use, reproduction and disclosure by the US Government is
 subject to restrictions as set forth in subparagraphs (a)
 and (c) of the Commercial Computer Software - Restricted
 Rights clause in FAR 52.227-19.
  
 Gaussian, Inc.
 340 Quinnipiac St., Bldg. 40, Wallingford CT 06492
  
  
 ---------------------------------------------------------------
 Warning -- This program may not be used in any manner that
 competes with the business of Gaussian, Inc. or will provide
 assistance to any competitor of Gaussian, Inc.  The licensee
 of this program is prohibited from giving any competitor of
 Gaussian, Inc. access to this program.  By using this program,
 the user acknowledges that Gaussian, Inc. is engaged in the
 business of creating and licensing software in the field of
 computational chemistry and represents and warrants to the
 licensee that it is not a competitor of Gaussian, Inc. and that
 it will not use this program in any manner prohibited above.
 ---------------------------------------------------------------
  

 Cite this work as:
 Gaussian 09, Revision D.01,
 M. J. Frisch, G. W. Trucks, H. B. Schlegel, G. E. Scuseria, 
 M. A. Robb, J. R. Cheeseman, G. Scalmani, V. Barone, B. Mennucci, 
 G. A. Petersson, H. Nakatsuji, M. Caricato, X. Li, H. P. Hratchian, 
 A. F. Izmaylov, J. Bloino, G. Zheng, J. L. Sonnenberg, M. Hada, 
 M. Ehara, K. Toyota, R. Fukuda, J. Hasegawa, M. Ishida, T. Nakajima, 
 Y. Honda, O. Kitao, H. Nakai, T. Vreven, J. A. Montgomery, Jr., 
 J. E. Peralta, F. Ogliaro, M. Bearpark, J. J. Heyd, E. Brothers, 
 K. N. Kudin, V. N. Staroverov, T. Keith, R. Kobayashi, J. Normand, 
 K. Raghavachari, A. Rendell, J. C. Burant, S. S. Iyengar, J. Tomasi, 
 M. Cossi, N. Rega, J. M. Millam, M. Klene, J. E. Knox, J. B. Cross, 
 V. Bakken, C. Adamo, J. Jaramillo, R. Gomperts, R. E. Stratmann, 
 O. Yazyev, A. J. Austin, R. Cammi, C. Pomelli, J. W. Ochterski, 
 R. L. Martin, K. Morokuma, V. G. Zakrzewski, G. A. Voth, 
 P. Salvador, J. J. Dannenberg, S. Dapprich, A. D. Daniels, 
 O. Farkas, J. B. Foresman, J. V. Ortiz, J. Cioslowski, 
 and D. J. Fox, Gaussian, Inc., Wallingford CT, 2013.
 
 ******************************************
 Gaussian 09:  AM64L-G09RevD.01 24-Apr-2013
                19-Feb-2025 
 ******************************************
 %chk=cyclohexane_boat.chk
 --------------------------------------
 # opt freq hf/sto-3g geom=connectivity
 --------------------------------------
 1/18=20,19=15,38=1,57=2/1,3;
 2/9=110,12=2,17=6,18=5,40=1/2;
 3/6=3,11=9,16=1,25=1,30=1,71=1/1,2,3;
 4//1;
 5/5=2,38=5/2;
 6/7=2,8=2,9=2,10=2,28=1/1;
 7//1,2,3,16;
 1/18=20,19=15/3(2);
 2/9=110/2;
 99//99;
 2/9=110/2;
 3/6=3,11=9,16=1,25=1,30=1,71=1/1,2,3;
 4/5=5,16=3,69=1/1;
 5/5=2,38=5/2;
 7//1,2,3,16;
 1/18=20,19=15/3(-5);
 2/9=110/2;
 6/7=2,8=2,9=2,10=2,19=2,28=1/1;
 99/9=1/99;
 -------------------
 Title Card Required
 -------------------
 Symbolic Z-matrix:
 Charge =  0 Multiplicity = 1
 C                    -4.34686  -0.00625   0. 
 C                    -2.82997  -0.00625   0. 
 C                    -2.25225   1.3964    0. 
 C                    -3.16514   2.37703   0.70521 
 C                    -4.50387   2.49796   0.00165 
 C                    -4.90806   1.21379  -0.6981 
 H                    -1.24835   1.38963   0.49859 
 H                    -2.46533  -0.56509   0.90147 
 H                    -2.45174  -0.55634  -0.90137 
 H                    -4.53692   1.23112  -1.75687 
 H                    -4.72076  -0.0263    1.05781 
 H                    -3.3261    2.03279   1.76082 
 H                    -2.67346   3.38305   0.75405 
 H                    -4.4607    3.32625  -0.75327 
 H                    -5.28627   2.781     0.75367 
 H                    -6.02605   1.14396  -0.73823 
 H                    -4.72269  -0.93469  -0.5033 
 H                    -2.09629   1.73771  -1.05741 
 

 GradGradGradGradGradGradGradGradGradGradGradGradGradGradGradGradGradGrad
 Berny optimization.
 Initialization pass.
                           ----------------------------
                           !    Initial Parameters    !
                           ! (Angstroms and Degrees)  !
 --------------------------                            --------------------------
 ! Name  Definition              Value          Derivative Info.                !
 --------------------------------------------------------------------------------
 ! R1    R(1,2)                  1.5169         estimate D2E/DX2                !
 ! R2    R(1,6)                  1.5135         estimate D2E/DX2                !
 ! R3    R(1,11)                 1.1221         estimate D2E/DX2                !
 ! R4    R(1,17)                 1.121          estimate D2E/DX2                !
 ! R5    R(2,3)                  1.517          estimate D2E/DX2                !
 ! R6    R(2,8)                  1.1216         estimate D2E/DX2                !
 ! R7    R(2,9)                  1.1217         estimate D2E/DX2                !
 ! R8    R(3,4)                  1.514          estimate D2E/DX2                !
 ! R9    R(3,7)                  1.1209         estimate D2E/DX2                !
 ! R10   R(3,18)                 1.122          estimate D2E/DX2                !
 ! R11   R(4,5)                  1.5172         estimate D2E/DX2                !
 ! R12   R(4,12)                 1.1219         estimate D2E/DX2                !
 ! R13   R(4,13)                 1.1208         estimate D2E/DX2                !
 ! R14   R(5,6)                  1.5173         estimate D2E/DX2                !
 ! R15   R(5,14)                 1.1215         estimate D2E/DX2                !
 ! R16   R(5,15)                 1.1215         estimate D2E/DX2                !
 ! R17   R(6,10)                 1.1221         estimate D2E/DX2                !
 ! R18   R(6,16)                 1.1209         estimate D2E/DX2                !
 ! A1    A(2,1,6)              111.764          estimate D2E/DX2                !
 ! A2    A(2,1,11)             109.4633         estimate D2E/DX2                !
 ! A3    A(2,1,17)             109.5893         estimate D2E/DX2                !
 ! A4    A(6,1,11)             109.0051         estimate D2E/DX2                !
 ! A5    A(6,1,17)             109.6479         estimate D2E/DX2                !
 ! A6    A(11,1,17)            107.2623         estimate D2E/DX2                !
 ! A7    A(1,2,3)              112.3857         estimate D2E/DX2                !
 ! A8    A(1,2,8)              108.9728         estimate D2E/DX2                !
 ! A9    A(1,2,9)              109.7071         estimate D2E/DX2                !
 ! A10   A(3,2,8)              109.6878         estimate D2E/DX2                !
 ! A11   A(3,2,9)              108.9678         estimate D2E/DX2                !
 ! A12   A(8,2,9)              106.9726         estimate D2E/DX2                !
 ! A13   A(2,3,4)              111.6698         estimate D2E/DX2                !
 ! A14   A(2,3,7)              109.603          estimate D2E/DX2                !
 ! A15   A(2,3,18)             109.5243         estimate D2E/DX2                !
 ! A16   A(4,3,7)              109.678          estimate D2E/DX2                !
 ! A17   A(4,3,18)             109.0106         estimate D2E/DX2                !
 ! A18   A(7,3,18)             107.2497         estimate D2E/DX2                !
 ! A19   A(3,4,5)              111.5712         estimate D2E/DX2                !
 ! A20   A(3,4,12)             109.0272         estimate D2E/DX2                !
 ! A21   A(3,4,13)             109.7033         estimate D2E/DX2                !
 ! A22   A(5,4,12)             109.5228         estimate D2E/DX2                !
 ! A23   A(5,4,13)             109.6182         estimate D2E/DX2                !
 ! A24   A(12,4,13)            107.2985         estimate D2E/DX2                !
 ! A25   A(4,5,6)              112.4246         estimate D2E/DX2                !
 ! A26   A(4,5,14)             109.6967         estimate D2E/DX2                !
 ! A27   A(4,5,15)             108.9496         estimate D2E/DX2                !
 ! A28   A(6,5,14)             108.9593         estimate D2E/DX2                !
 ! A29   A(6,5,15)             109.6942         estimate D2E/DX2                !
 ! A30   A(14,5,15)            106.9673         estimate D2E/DX2                !
 ! A31   A(1,6,5)              111.7624         estimate D2E/DX2                !
 ! A32   A(1,6,10)             108.9666         estimate D2E/DX2                !
 ! A33   A(1,6,16)             109.6406         estimate D2E/DX2                !
 ! A34   A(5,6,10)             109.5112         estimate D2E/DX2                !
 ! A35   A(5,6,16)             109.5691         estimate D2E/DX2                !
 ! A36   A(10,6,16)            107.283          estimate D2E/DX2                !
 ! D1    D(6,1,2,3)             29.7777         estimate D2E/DX2                !
 ! D2    D(6,1,2,8)            151.5731         estimate D2E/DX2                !
 ! D3    D(6,1,2,9)            -91.6168         estimate D2E/DX2                !
 ! D4    D(11,1,2,3)           -91.0855         estimate D2E/DX2                !
 ! D5    D(11,1,2,8)            30.7098         estimate D2E/DX2                !
 ! D6    D(11,1,2,9)           147.5199         estimate D2E/DX2                !
 ! D7    D(17,1,2,3)           151.5381         estimate D2E/DX2                !
 ! D8    D(17,1,2,8)           -86.6665         estimate D2E/DX2                !
 ! D9    D(17,1,2,9)            30.1435         estimate D2E/DX2                !
 ! D10   D(2,1,6,5)            -62.0803         estimate D2E/DX2                !
 ! D11   D(2,1,6,10)            59.0821         estimate D2E/DX2                !
 ! D12   D(2,1,6,16)           176.2247         estimate D2E/DX2                !
 ! D13   D(11,1,6,5)            59.049          estimate D2E/DX2                !
 ! D14   D(11,1,6,10)         -179.7885         estimate D2E/DX2                !
 ! D15   D(11,1,6,16)          -62.6459         estimate D2E/DX2                !
 ! D16   D(17,1,6,5)           176.193          estimate D2E/DX2                !
 ! D17   D(17,1,6,10)          -62.6445         estimate D2E/DX2                !
 ! D18   D(17,1,6,16)           54.4981         estimate D2E/DX2                !
 ! D19   D(1,2,3,4)             30.0795         estimate D2E/DX2                !
 ! D20   D(1,2,3,7)            151.8248         estimate D2E/DX2                !
 ! D21   D(1,2,3,18)           -90.7706         estimate D2E/DX2                !
 ! D22   D(8,2,3,4)            -91.308          estimate D2E/DX2                !
 ! D23   D(8,2,3,7)             30.4373         estimate D2E/DX2                !
 ! D24   D(8,2,3,18)           147.8419         estimate D2E/DX2                !
 ! D25   D(9,2,3,4)            151.8957         estimate D2E/DX2                !
 ! D26   D(9,2,3,7)            -86.359          estimate D2E/DX2                !
 ! D27   D(9,2,3,18)            31.0457         estimate D2E/DX2                !
 ! D28   D(2,3,4,5)            -62.5713         estimate D2E/DX2                !
 ! D29   D(2,3,4,12)            58.5236         estimate D2E/DX2                !
 ! D30   D(2,3,4,13)           175.7557         estimate D2E/DX2                !
 ! D31   D(7,3,4,5)            175.7267         estimate D2E/DX2                !
 ! D32   D(7,3,4,12)           -63.1784         estimate D2E/DX2                !
 ! D33   D(7,3,4,13)            54.0537         estimate D2E/DX2                !
 ! D34   D(18,3,4,5)            58.5777         estimate D2E/DX2                !
 ! D35   D(18,3,4,12)          179.6726         estimate D2E/DX2                !
 ! D36   D(18,3,4,13)          -63.0954         estimate D2E/DX2                !
 ! D37   D(3,4,5,6)             30.2447         estimate D2E/DX2                !
 ! D38   D(3,4,5,14)           -91.1579         estimate D2E/DX2                !
 ! D39   D(3,4,5,15)           152.0576         estimate D2E/DX2                !
 ! D40   D(12,4,5,6)           -90.5612         estimate D2E/DX2                !
 ! D41   D(12,4,5,14)          148.0362         estimate D2E/DX2                !
 ! D42   D(12,4,5,15)           31.2517         estimate D2E/DX2                !
 ! D43   D(13,4,5,6)           151.9669         estimate D2E/DX2                !
 ! D44   D(13,4,5,14)           30.5643         estimate D2E/DX2                !
 ! D45   D(13,4,5,15)          -86.2202         estimate D2E/DX2                !
 ! D46   D(4,5,6,1)             29.5616         estimate D2E/DX2                !
 ! D47   D(4,5,6,10)           -91.2846         estimate D2E/DX2                !
 ! D48   D(4,5,6,16)           151.2978         estimate D2E/DX2                !
 ! D49   D(14,5,6,1)           151.3844         estimate D2E/DX2                !
 ! D50   D(14,5,6,10)           30.5382         estimate D2E/DX2                !
 ! D51   D(14,5,6,16)          -86.8794         estimate D2E/DX2                !
 ! D52   D(15,5,6,1)           -91.8269         estimate D2E/DX2                !
 ! D53   D(15,5,6,10)          147.3269         estimate D2E/DX2                !
 ! D54   D(15,5,6,16)           29.9093         estimate D2E/DX2                !
 --------------------------------------------------------------------------------
 Trust Radius=3.00D-01 FncErr=1.00D-07 GrdErr=1.00D-07
 Number of steps in this run=    108 maximum allowed number of steps=    108.
 GradGradGradGradGradGradGradGradGradGradGradGradGradGradGradGradGradGrad

                          Input orientation:                          
 ---------------------------------------------------------------------
 Center     Atomic      Atomic             Coordinates (Angstroms)
 Number     Number       Type             X           Y           Z
 ---------------------------------------------------------------------
      1          6           0       -4.346864   -0.006254    0.000000
      2          6           0       -2.829974   -0.006254    0.000000
      3          6           0       -2.252252    1.396396    0.000000
      4          6           0       -3.165139    2.377033    0.705212
      5          6           0       -4.503872    2.497962    0.001646
      6          6           0       -4.908061    1.213794   -0.698099
      7          1           0       -1.248351    1.389628    0.498586
      8          1           0       -2.465331   -0.565089    0.901472
      9          1           0       -2.451736   -0.556337   -0.901372
     10          1           0       -4.536920    1.231116   -1.756866
     11          1           0       -4.720760   -0.026298    1.057812
     12          1           0       -3.326101    2.032788    1.760821
     13          1           0       -2.673455    3.383054    0.754048
     14          1           0       -4.460695    3.326252   -0.753273
     15          1           0       -5.286273    2.780998    0.753672
     16          1           0       -6.026053    1.143963   -0.738227
     17          1           0       -4.722693   -0.934686   -0.503298
     18          1           0       -2.096292    1.737707   -1.057406
 ---------------------------------------------------------------------
                    Distance matrix (angstroms):
                    1          2          3          4          5
     1  C    0.000000
     2  C    1.516890   0.000000
     3  C    2.520878   1.516967   0.000000
     4  C    2.752064   2.507931   1.514046   0.000000
     5  C    2.509134   3.012148   2.506640   1.517180   0.000000
     6  C    1.513539   2.508845   2.752091   2.521940   1.517267
     7  H    3.434801   2.167627   1.120915   2.166042   3.474733
     8  H    2.159888   1.121567   2.169211   3.030566   3.787825
     9  H    2.169464   1.121663   2.159961   3.419754   3.788858
    10  H    2.157263   2.744326   2.886798   3.042489   2.167569
    11  H    1.122126   2.166666   3.039170   2.884490   2.744889
    12  H    2.880996   2.739402   2.158388   1.121929   2.167540
    13  H    3.854386   3.475701   2.166290   1.120811   2.167931
    14  H    3.418475   3.785798   3.028033   2.169484   1.121531
    15  H    3.036327   3.790805   3.419127   2.159802   1.121519
    16  H    2.165099   3.476046   3.853606   3.433483   2.167432
    17  H    1.120956   2.167413   3.433705   3.854083   3.476481
    18  H    3.037200   2.167440   1.122018   2.158239   2.737886
                    6          7          8          9         10
     6  C    0.000000
     7  H    3.854407   0.000000
     8  H    3.419062   2.337579   0.000000
     9  H    3.034504   2.682312   1.802917   0.000000
    10  H    1.122067   3.990849   3.818978   2.876604   0.000000
    11  H    2.157808   3.791465   2.324155   3.044308   3.088252
    12  H    3.036385   2.514744   2.868514   3.815148   3.805638
    13  H    3.436260   2.463723   3.956372   4.278829   3.795791
    14  H    2.160014   3.954342   4.675702   4.374054   2.324350
    15  H    2.169519   4.278527   4.379025   4.680980   3.044087
    16  H    1.120889   4.941305   4.276472   3.961487   1.806305
    17  H    2.165242   4.298518   2.684337   2.336420   2.509311
    18  H    2.882643   1.805900   3.045696   2.326655   2.588927
                   11         12         13         14         15
    11  H    0.000000
    12  H    2.584401   0.000000
    13  H    3.988410   1.806310   0.000000
    14  H    3.819326   3.046477   2.338690   0.000000
    15  H    2.879795   2.327325   2.681285   1.802710   0.000000
    16  H    2.509792   3.784837   4.298875   2.685695   2.335149
    17  H    1.806166   3.985299   4.941981   4.276298   3.962815
    18  H    3.804431   3.088998   2.514289   2.864677   3.813717
                   16         17         18
    16  H    0.000000
    17  H    2.464695   0.000000
    18  H    3.987158   3.787704   0.000000
 Stoichiometry    C6H12
 Framework group  C1[X(C6H12)]
 Deg. of freedom    48
 Full point group                 C1      NOp   1
 Largest Abelian subgroup         C1      NOp   1
 Largest concise Abelian subgroup C1      NOp   1
                         Standard orientation:                         
 ---------------------------------------------------------------------
 Center     Atomic      Atomic             Coordinates (Angstroms)
 Number     Number       Type             X           Y           Z
 ---------------------------------------------------------------------
      1          6           0       -0.665810    1.204450    0.365845
      2          6           0       -1.506146   -0.004199   -0.000158
      3          6           0       -0.658456   -1.207412   -0.367434
      4          6           0        0.664844   -1.204536    0.368231
      5          6           0        1.505994    0.002764   -0.001542
      6          6           0        0.659647    1.208495   -0.364873
      7          1           0       -1.219411   -2.148757   -0.131535
      8          1           0       -2.171902   -0.260987    0.865140
      9          1           0       -2.175137    0.247954   -0.864448
     10          1           0        0.466706    1.211570   -1.470222
     11          1           0       -0.473610    1.205289    1.471388
     12          1           0        0.469173   -1.201013    1.472959
     13          1           0        1.230076   -2.143332    0.132877
     14          1           0        2.170394   -0.250738   -0.868802
     15          1           0        2.176314    0.257523    0.860764
     16          1           0        1.220797    2.147961   -0.122165
     17          1           0       -1.231382    2.142033    0.125829
     18          1           0       -0.462459   -1.204872   -1.472198
 ---------------------------------------------------------------------
 Rotational constants (GHZ):      4.4810738      4.2210115      2.5786824
 Standard basis: STO-3G (5D, 7F)
 There are    42 symmetry adapted cartesian basis functions of A   symmetry.
 There are    42 symmetry adapted basis functions of A   symmetry.
    42 basis functions,   126 primitive gaussians,    42 cartesian basis functions
    24 alpha electrons       24 beta electrons
       nuclear repulsion energy       257.0535731740 Hartrees.
 NAtoms=   18 NActive=   18 NUniq=   18 SFac= 1.00D+00 NAtFMM=   60 NAOKFM=F Big=F
 Integral buffers will be    131072 words long.
 Raffenetti 1 integral format.
 Two-electron integral symmetry is turned on.
 One-electron integrals computed using PRISM.
 NBasis=    42 RedAO= T EigKep=  1.92D-01  NBF=    42
 NBsUse=    42 1.00D-06 EigRej= -1.00D+00 NBFU=    42
 ExpMin= 1.69D-01 ExpMax= 7.16D+01 ExpMxC= 7.16D+01 IAcc=1 IRadAn=         1 AccDes= 0.00D+00
 Harris functional with IExCor=  205 and IRadAn=       1 diagonalized for initial guess.
 HarFok:  IExCor=  205 AccDes= 0.00D+00 IRadAn=         1 IDoV= 1 UseB2=F ITyADJ=14
 ICtDFT=  3500011 ScaDFX=  1.000000  1.000000  1.000000  1.000000
 FoFCou: FMM=F IPFlag=           0 FMFlag=      100000 FMFlg1=           0
         NFxFlg=           0 DoJE=T BraDBF=F KetDBF=T FulRan=T
         wScrn=  0.000000 ICntrl=     500 IOpCl=  0 I1Cent=   200000004 NGrid=           0
         NMat0=    1 NMatS0=      1 NMatT0=    0 NMatD0=    1 NMtDS0=    0 NMtDT0=    0
 Petite list used in FoFCou.
 Keep R1 ints in memory in canonical form, NReq=1270893.
 Requested convergence on RMS density matrix=1.00D-08 within 128 cycles.
 Requested convergence on MAX density matrix=1.00D-06.
 Requested convergence on             energy=1.00D-06.
 No special actions if energy rises.
 SCF Done:  E(RHF) =  -231.457028529     A.U. after    8 cycles
            NFock=  8  Conv=0.86D-08     -V/T= 2.0094

 **********************************************************************

            Population analysis using the SCF density.

 **********************************************************************

 Orbital symmetries:
       Occupied  (A) (A) (A) (A) (A) (A) (A) (A) (A) (A) (A) (A)
                 (A) (A) (A) (A) (A) (A) (A) (A) (A) (A) (A) (A)
       Virtual   (A) (A) (A) (A) (A) (A) (A) (A) (A) (A) (A) (A)
                 (A) (A) (A) (A) (A) (A)
 The electronic state is 1-A.
 Alpha  occ. eigenvalues --  -11.03595 -11.03587 -11.03572 -11.03570 -11.03523
 Alpha  occ. eigenvalues --  -11.03513  -1.07767  -0.95859  -0.95715  -0.79512
 Alpha  occ. eigenvalues --   -0.78381  -0.67001  -0.62396  -0.61349  -0.56222
 Alpha  occ. eigenvalues --   -0.51924  -0.48292  -0.47650  -0.47342  -0.46046
 Alpha  occ. eigenvalues --   -0.44978  -0.38362  -0.38356  -0.38203
 Alpha virt. eigenvalues --    0.54564   0.59558   0.59617   0.59924   0.64398
 Alpha virt. eigenvalues --    0.64760   0.66864   0.68399   0.72312   0.73979
 Alpha virt. eigenvalues --    0.75257   0.77272   0.77331   0.77676   0.77713
 Alpha virt. eigenvalues --    0.84933   0.85742   0.86555
          Condensed to atoms (all electrons):
               1          2          3          4          5          6
     1  C    4.746392   0.364142  -0.023366  -0.008915  -0.023696   0.365738
     2  C    0.364142   4.747578   0.364173  -0.023767  -0.003374  -0.023716
     3  C   -0.023366   0.364173   4.746493   0.365629  -0.023855  -0.008905
     4  C   -0.008915  -0.023767   0.365629   4.746350   0.364127  -0.023302
     5  C   -0.023696  -0.003374  -0.023855   0.364127   4.747710   0.364084
     6  C    0.365738  -0.023716  -0.008905  -0.023302   0.364084   4.746379
     7  H    0.001238  -0.021771   0.378671  -0.021404   0.001297   0.000064
     8  H   -0.022667   0.378270  -0.022253  -0.000021   0.000009   0.001311
     9  H   -0.022248   0.378219  -0.022658   0.001313   0.000008   0.000001
    10  H   -0.023353  -0.002431  -0.000183   0.000202  -0.022734   0.377505
    11  H    0.377484  -0.022783   0.000191  -0.000188  -0.002426  -0.023320
    12  H   -0.000191  -0.002485  -0.023280   0.377539  -0.022718   0.000168
    13  H    0.000064   0.001293  -0.021376   0.378740  -0.021744   0.001235
    14  H    0.001310   0.000009  -0.000032  -0.022236   0.378251  -0.022669
    15  H    0.000012   0.000008   0.001317  -0.022675   0.378228  -0.022249
    16  H   -0.021436   0.001295   0.000064   0.001235  -0.021793   0.378735
    17  H    0.378712  -0.021787   0.001238   0.000064   0.001294  -0.021433
    18  H    0.000176  -0.022729   0.377513  -0.023292  -0.002500  -0.000187
               7          8          9         10         11         12
     1  C    0.001238  -0.022667  -0.022248  -0.023353   0.377484  -0.000191
     2  C   -0.021771   0.378270   0.378219  -0.002431  -0.022783  -0.002485
     3  C    0.378671  -0.022253  -0.022658  -0.000183   0.000191  -0.023280
     4  C   -0.021404  -0.000021   0.001313   0.000202  -0.000188   0.377539
     5  C    0.001297   0.000009   0.000008  -0.022734  -0.002426  -0.022718
     6  C    0.000064   0.001311   0.000001   0.377505  -0.023320   0.000168
     7  H    0.647214  -0.005754   0.000338   0.000004  -0.000020  -0.002055
     8  H   -0.005754   0.651447  -0.021825   0.000007  -0.005949   0.000329
     9  H    0.000338  -0.021825   0.651518   0.000326   0.001839   0.000008
    10  H    0.000004   0.000007   0.000326   0.654056   0.001955  -0.000028
    11  H   -0.000020  -0.005949   0.001839   0.001955   0.654147  -0.000519
    12  H   -0.002055   0.000329   0.000008  -0.000028  -0.000519   0.653855
    13  H   -0.002554  -0.000019  -0.000034  -0.000021   0.000004  -0.021612
    14  H   -0.000019   0.000001   0.000004  -0.005953   0.000007   0.001836
    15  H   -0.000034   0.000004   0.000001   0.001835   0.000324  -0.005871
    16  H    0.000001  -0.000034  -0.000019  -0.021593  -0.002124  -0.000020
    17  H   -0.000027   0.000357  -0.005786  -0.002126  -0.021598   0.000004
    18  H   -0.021627   0.001838  -0.005894  -0.000513  -0.000028   0.001947
              13         14         15         16         17         18
     1  C    0.000064   0.001310   0.000012  -0.021436   0.378712   0.000176
     2  C    0.001293   0.000009   0.000008   0.001295  -0.021787  -0.022729
     3  C   -0.021376  -0.000032   0.001317   0.000064   0.001238   0.377513
     4  C    0.378740  -0.022236  -0.022675   0.001235   0.000064  -0.023292
     5  C   -0.021744   0.378251   0.378228  -0.021793   0.001294  -0.002500
     6  C    0.001235  -0.022669  -0.022249   0.378735  -0.021433  -0.000187
     7  H   -0.002554  -0.000019  -0.000034   0.000001  -0.000027  -0.021627
     8  H   -0.000019   0.000001   0.000004  -0.000034   0.000357   0.001838
     9  H   -0.000034   0.000004   0.000001  -0.000019  -0.005786  -0.005894
    10  H   -0.000021  -0.005953   0.001835  -0.021593  -0.002126  -0.000513
    11  H    0.000004   0.000007   0.000324  -0.002124  -0.021598  -0.000028
    12  H   -0.021612   0.001836  -0.005871  -0.000020   0.000004   0.001947
    13  H    0.646941  -0.005727   0.000329  -0.000027   0.000001  -0.002058
    14  H   -0.005727   0.651442  -0.021826   0.000370  -0.000034   0.000330
    15  H    0.000329  -0.021826   0.651546  -0.005811  -0.000019   0.000009
    16  H   -0.000027   0.000370  -0.005811   0.647104  -0.002518   0.000004
    17  H    0.000001  -0.000034  -0.000019  -0.002518   0.647152  -0.000020
    18  H   -0.002058   0.000330   0.000009   0.000004  -0.000020   0.653991
 Mulliken charges:
               1
     1  C   -0.089395
     2  C   -0.090146
     3  C   -0.089382
     4  C   -0.089398
     5  C   -0.090169
     6  C   -0.089438
     7  H    0.046439
     8  H    0.044948
     9  H    0.044890
    10  H    0.043044
    11  H    0.043007
    12  H    0.043092
    13  H    0.046565
    14  H    0.044935
    15  H    0.044874
    16  H    0.046568
    17  H    0.046527
    18  H    0.043039
 Sum of Mulliken charges =   0.00000
 Mulliken charges with hydrogens summed into heavy atoms:
               1
     1  C    0.000138
     2  C   -0.000308
     3  C    0.000096
     4  C    0.000260
     5  C   -0.000360
     6  C    0.000173
 Electronic spatial extent (au):  <R**2>=            577.3711
 Charge=              0.0000 electrons
 Dipole moment (field-independent basis, Debye):
    X=              0.0002    Y=              0.0006    Z=              0.0001  Tot=              0.0007
 Quadrupole moment (field-independent basis, Debye-Ang):
   XX=            -38.5405   YY=            -38.3698   ZZ=            -37.4385
   XY=             -0.0021   XZ=              0.0007   YZ=             -0.0010
 Traceless Quadrupole moment (field-independent basis, Debye-Ang):
   XX=             -0.4243   YY=             -0.2535   ZZ=              0.6778
   XY=             -0.0021   XZ=              0.0007   YZ=             -0.0010
 Octapole moment (field-independent basis, Debye-Ang**2):
  XXX=             -0.0013  YYY=             -0.0078  ZZZ=             -0.0039  XYY=              0.0042
  XXY=              0.0009  XXZ=             -0.0021  XZZ=             -0.0011  YZZ=              0.0067
  YYZ=              0.0062  XYZ=              1.3145
 Hexadecapole moment (field-independent basis, Debye-Ang**3):
 XXXX=           -335.7121 YYYY=           -308.7275 ZZZZ=            -95.2279 XXXY=             -0.0202
 XXXZ=              0.0329 YYYX=             -0.0096 YYYZ=              0.0046 ZZZX=             -0.0284
 ZZZY=             -0.0055 XXYY=           -105.3557 XXZZ=            -69.9840 YYZZ=            -70.6144
 XXYZ=              0.0009 YYXZ=              0.0229 ZZXY=              0.0079
 N-N= 2.570535731740D+02 E-N=-1.051781293600D+03  KE= 2.292944124259D+02
 Calling FoFJK, ICntrl=      2127 FMM=F ISym2X=0 I1Cent= 0 IOpClX= 0 NMat=1 NMatS=1 NMatT=0.
 ***** Axes restored to original set *****
 -------------------------------------------------------------------
 Center     Atomic                   Forces (Hartrees/Bohr)
 Number     Number              X              Y              Z
 -------------------------------------------------------------------
      1        6          -0.035454412   -0.041926428    0.022044824
      2        6           0.034037427   -0.050467467   -0.000228935
      3        6           0.052040657    0.017058833   -0.021541755
      4        6           0.017770085    0.029421492    0.046795700
      5        6          -0.033671042    0.050639230    0.000175583
      6        6          -0.034597612   -0.004956078   -0.047278730
      7        1          -0.023495819    0.001016115   -0.014677889
      8        1          -0.008230913    0.012549520   -0.023667680
      9        1          -0.008494976    0.012418393    0.023711681
     10        1          -0.010832647   -0.001519975    0.025908523
     11        1           0.007666866   -0.000442987   -0.027101207
     12        1           0.005674882    0.009551987   -0.025746228
     13        1          -0.012137613   -0.024818444    0.001637156
     14        1          -0.002513608   -0.019646631    0.019778919
     15        1           0.019130527   -0.005290429   -0.019701200
     16        1           0.027623461    0.001681739   -0.001956540
     17        1           0.007933782    0.022096265    0.014850455
     18        1          -0.002449046   -0.007365136    0.026997325
 -------------------------------------------------------------------
 Cartesian Forces:  Max     0.052040657 RMS     0.023793544

 GradGradGradGradGradGradGradGradGradGradGradGradGradGradGradGradGradGrad
 Berny optimization.
 FormGI is forming the generalized inverse of G from B-inverse, IUseBI=4.
 Internal  Forces:  Max     0.028922849 RMS     0.011302107
 Search for a local minimum.
 Step number   1 out of a maximum of  108
 All quantities printed in internal units (Hartrees-Bohrs-Radians)
 Mixed Optimization -- RFO/linear search
 Second derivative matrix not updated -- first step.
 ITU=  0
     Eigenvalues ---    0.00540   0.00673   0.00932   0.02165   0.02217
     Eigenvalues ---    0.03708   0.03799   0.04033   0.04301   0.04877
     Eigenvalues ---    0.04976   0.05016   0.05454   0.05609   0.05793
     Eigenvalues ---    0.06413   0.08233   0.08251   0.08265   0.08267
     Eigenvalues ---    0.08365   0.08369   0.08780   0.09129   0.12119
     Eigenvalues ---    0.12152   0.12258   0.18396   0.19842   0.21914
     Eigenvalues ---    0.27500   0.28513   0.29262   0.30649   0.30767
     Eigenvalues ---    0.30805   0.31349   0.31355   0.31360   0.31369
     Eigenvalues ---    0.31396   0.31405   0.31409   0.31410   0.31467
     Eigenvalues ---    0.31471   0.31474   0.31482
 RFO step:  Lambda=-3.96068193D-02 EMin= 5.40047493D-03
 Linear search not attempted -- first point.
 Maximum step size (   0.300) exceeded in Quadratic search.
    -- Step size scaled by   0.893
 Iteration  1 RMS(Cart)=  0.02983535 RMS(Int)=  0.00020564
 Iteration  2 RMS(Cart)=  0.00016182 RMS(Int)=  0.00001426
 Iteration  3 RMS(Cart)=  0.00000002 RMS(Int)=  0.00001426
 Variable       Old X    -DE/DX   Delta X   Delta X   Delta X     New X
                                 (Linear)    (Quad)   (Total)
    R1        2.86651   0.02892   0.00000   0.07517   0.07519   2.94169
    R2        2.86017   0.02413   0.00000   0.06057   0.06055   2.92073
    R3        2.12051  -0.02809   0.00000  -0.07104  -0.07104   2.04947
    R4        2.11830  -0.02763   0.00000  -0.06963  -0.06963   2.04867
    R5        2.86665   0.02866   0.00000   0.07451   0.07452   2.94117
    R6        2.11945  -0.02795   0.00000  -0.07057  -0.07057   2.04889
    R7        2.11963  -0.02801   0.00000  -0.07073  -0.07073   2.04890
    R8        2.86113   0.02366   0.00000   0.05941   0.05938   2.92052
    R9        2.11822  -0.02758   0.00000  -0.06949  -0.06949   2.04873
   R10        2.12031  -0.02802   0.00000  -0.07084  -0.07084   2.04947
   R11        2.86705   0.02853   0.00000   0.07411   0.07412   2.94117
   R12        2.12014  -0.02797   0.00000  -0.07068  -0.07068   2.04946
   R13        2.11803  -0.02753   0.00000  -0.06935  -0.06935   2.04867
   R14        2.86722   0.02869   0.00000   0.07453   0.07454   2.94176
   R15        2.11939  -0.02792   0.00000  -0.07048  -0.07048   2.04891
   R16        2.11936  -0.02789   0.00000  -0.07040  -0.07040   2.04896
   R17        2.12040  -0.02805   0.00000  -0.07092  -0.07092   2.04948
   R18        2.11817  -0.02759   0.00000  -0.06951  -0.06951   2.04866
    A1        1.95065  -0.00024   0.00000  -0.00080  -0.00081   1.94984
    A2        1.91050   0.00070   0.00000   0.00560   0.00562   1.91611
    A3        1.91269   0.00074   0.00000   0.00553   0.00551   1.91820
    A4        1.90250  -0.00021   0.00000  -0.00354  -0.00355   1.89895
    A5        1.91372   0.00027   0.00000   0.00464   0.00464   1.91836
    A6        1.87208  -0.00131   0.00000  -0.01195  -0.01195   1.86013
    A7        1.96150   0.00034   0.00000   0.00327   0.00330   1.96480
    A8        1.90193   0.00060   0.00000   0.00240   0.00236   1.90430
    A9        1.91475  -0.00027   0.00000   0.00095   0.00094   1.91569
   A10        1.91441  -0.00031   0.00000   0.00070   0.00069   1.91510
   A11        1.90185   0.00063   0.00000   0.00263   0.00260   1.90445
   A12        1.86702  -0.00107   0.00000  -0.01067  -0.01066   1.85637
   A13        1.94901  -0.00026   0.00000  -0.00085  -0.00086   1.94815
   A14        1.91293   0.00070   0.00000   0.00553   0.00550   1.91844
   A15        1.91156   0.00066   0.00000   0.00496   0.00497   1.91653
   A16        1.91424   0.00035   0.00000   0.00519   0.00519   1.91943
   A17        1.90259  -0.00023   0.00000  -0.00375  -0.00376   1.89883
   A18        1.87186  -0.00127   0.00000  -0.01156  -0.01156   1.86030
   A19        1.94728   0.00010   0.00000   0.00062   0.00061   1.94789
   A20        1.90288  -0.00027   0.00000  -0.00380  -0.00382   1.89907
   A21        1.91468   0.00019   0.00000   0.00456   0.00455   1.91924
   A22        1.91153   0.00057   0.00000   0.00480   0.00482   1.91635
   A23        1.91320   0.00061   0.00000   0.00514   0.00511   1.91831
   A24        1.87271  -0.00124   0.00000  -0.01185  -0.01185   1.86087
   A25        1.96218   0.00024   0.00000   0.00269   0.00271   1.96489
   A26        1.91457  -0.00037   0.00000   0.00038   0.00038   1.91495
   A27        1.90153   0.00074   0.00000   0.00313   0.00309   1.90462
   A28        1.90170   0.00070   0.00000   0.00272   0.00269   1.90439
   A29        1.91453  -0.00030   0.00000   0.00103   0.00102   1.91554
   A30        1.86693  -0.00108   0.00000  -0.01065  -0.01064   1.85629
   A31        1.95062  -0.00025   0.00000  -0.00073  -0.00074   1.94989
   A32        1.90183  -0.00008   0.00000  -0.00294  -0.00295   1.89887
   A33        1.91359   0.00023   0.00000   0.00463   0.00463   1.91822
   A34        1.91133   0.00060   0.00000   0.00493   0.00494   1.91628
   A35        1.91234   0.00078   0.00000   0.00571   0.00568   1.91802
   A36        1.87244  -0.00133   0.00000  -0.01212  -0.01212   1.86032
    D1        0.51972   0.00039   0.00000   0.00046   0.00043   0.52015
    D2        2.64545   0.00064   0.00000   0.00517   0.00516   2.65061
    D3       -1.59902  -0.00045   0.00000  -0.00576  -0.00578  -1.60479
    D4       -1.58974   0.00034   0.00000   0.00165   0.00163  -1.58811
    D5        0.53599   0.00059   0.00000   0.00636   0.00636   0.54235
    D6        2.57471  -0.00050   0.00000  -0.00457  -0.00458   2.57013
    D7        2.64484   0.00108   0.00000   0.00962   0.00961   2.65445
    D8       -1.51262   0.00134   0.00000   0.01433   0.01434  -1.49828
    D9        0.52610   0.00024   0.00000   0.00341   0.00340   0.52950
   D10       -1.08351   0.00044   0.00000   0.00416   0.00414  -1.07937
   D11        1.03118   0.00098   0.00000   0.00788   0.00787   1.03905
   D12        3.07570  -0.00053   0.00000  -0.00578  -0.00580   3.06990
   D13        1.03060   0.00103   0.00000   0.00827   0.00826   1.03886
   D14       -3.13790   0.00157   0.00000   0.01200   0.01200  -3.12591
   D15       -1.09338   0.00005   0.00000  -0.00166  -0.00167  -1.09505
   D16        3.07515  -0.00052   0.00000  -0.00552  -0.00554   3.06961
   D17       -1.09335   0.00002   0.00000  -0.00180  -0.00180  -1.09516
   D18        0.95117  -0.00150   0.00000  -0.01546  -0.01547   0.93570
   D19        0.52499   0.00028   0.00000  -0.00065  -0.00067   0.52432
   D20        2.64984   0.00103   0.00000   0.00915   0.00914   2.65898
   D21       -1.58425   0.00029   0.00000   0.00128   0.00126  -1.58298
   D22       -1.59363  -0.00050   0.00000  -0.00638  -0.00640  -1.60002
   D23        0.53123   0.00026   0.00000   0.00342   0.00342   0.53465
   D24        2.58033  -0.00049   0.00000  -0.00445  -0.00446   2.57587
   D25        2.65108   0.00060   0.00000   0.00456   0.00455   2.65563
   D26       -1.50725   0.00135   0.00000   0.01436   0.01436  -1.49289
   D27        0.54185   0.00061   0.00000   0.00648   0.00648   0.54833
   D28       -1.09208   0.00045   0.00000   0.00511   0.00510  -1.08697
   D29        1.02143   0.00105   0.00000   0.00897   0.00896   1.03039
   D30        3.06752  -0.00051   0.00000  -0.00492  -0.00494   3.06258
   D31        3.06701  -0.00050   0.00000  -0.00489  -0.00490   3.06211
   D32       -1.10267   0.00009   0.00000  -0.00103  -0.00104  -1.10371
   D33        0.94341  -0.00146   0.00000  -0.01492  -0.01494   0.92848
   D34        1.02237   0.00096   0.00000   0.00826   0.00825   1.03063
   D35        3.13588   0.00155   0.00000   0.01212   0.01211  -3.13520
   D36       -1.10122   0.00000   0.00000  -0.00178  -0.00178  -1.10301
   D37        0.52787   0.00036   0.00000  -0.00036  -0.00039   0.52748
   D38       -1.59101  -0.00042   0.00000  -0.00590  -0.00593  -1.59693
   D39        2.65391   0.00066   0.00000   0.00490   0.00489   2.65879
   D40       -1.58059   0.00026   0.00000   0.00079   0.00077  -1.57982
   D41        2.58372  -0.00053   0.00000  -0.00476  -0.00477   2.57895
   D42        0.54545   0.00056   0.00000   0.00605   0.00605   0.55149
   D43        2.65232   0.00108   0.00000   0.00933   0.00932   2.66164
   D44        0.53345   0.00029   0.00000   0.00379   0.00378   0.53723
   D45       -1.50483   0.00138   0.00000   0.01459   0.01460  -1.49023
   D46        0.51595   0.00050   0.00000   0.00097   0.00095   0.51689
   D47       -1.59322   0.00036   0.00000   0.00181   0.00180  -1.59142
   D48        2.64064   0.00116   0.00000   0.01028   0.01027   2.65091
   D49        2.64216   0.00068   0.00000   0.00514   0.00512   2.64728
   D50        0.53299   0.00053   0.00000   0.00598   0.00598   0.53897
   D51       -1.51633   0.00134   0.00000   0.01444   0.01445  -1.50188
   D52       -1.60268  -0.00039   0.00000  -0.00553  -0.00556  -1.60824
   D53        2.57134  -0.00053   0.00000  -0.00469  -0.00470   2.56664
   D54        0.52202   0.00027   0.00000   0.00377   0.00377   0.52578
         Item               Value     Threshold  Converged?
 Maximum Force            0.028923     0.000450     NO 
 RMS     Force            0.011302     0.000300     NO 
 Maximum Displacement     0.090650     0.001800     NO 
 RMS     Displacement     0.029783     0.001200     NO 
 Predicted change in Energy=-2.141577D-02
 GradGradGradGradGradGradGradGradGradGradGradGradGradGradGradGradGradGrad

                          Input orientation:                          
 ---------------------------------------------------------------------
 Center     Atomic      Atomic             Coordinates (Angstroms)
 Number     Number       Type             X           Y           Z
 ---------------------------------------------------------------------
      1          6           0       -4.367598   -0.036875   -0.002140
      2          6           0       -2.810924   -0.034320   -0.000013
      3          6           0       -2.215802    1.403808    0.002470
      4          6           0       -3.148270    2.404709    0.721622
      5          6           0       -4.522906    2.526105    0.001881
      6          6           0       -4.940585    1.208984   -0.715123
      7          1           0       -1.240960    1.399304    0.476838
      8          1           0       -2.456291   -0.578644    0.868026
      9          1           0       -2.442284   -0.569657   -0.867815
     10          1           0       -4.584890    1.219807   -1.739615
     11          1           0       -4.736067   -0.056331    1.017696
     12          1           0       -3.296612    2.072363    1.743255
     13          1           0       -2.673783    3.377844    0.777922
     14          1           0       -4.485482    3.329610   -0.725130
     15          1           0       -5.279883    2.804845    0.726392
     16          1           0       -6.021543    1.142073   -0.763477
     17          1           0       -4.734561   -0.937692   -0.480848
     18          1           0       -2.062386    1.739848   -1.017212
 ---------------------------------------------------------------------
                    Distance matrix (angstroms):
                    1          2          3          4          5
     1  C    0.000000
     2  C    1.556677   0.000000
     3  C    2.589558   1.556403   0.000000
     4  C    2.823459   2.565818   1.545470   0.000000
     5  C    2.567684   3.080042   2.565595   1.556402   0.000000
     6  C    1.545582   2.567614   2.824418   2.589669   1.556714
     7  H    3.473887   2.178865   1.084142   2.169929   3.502347
     8  H    2.168824   1.084225   2.176497   3.066051   3.828913
     9  H    2.177173   1.084234   2.168699   3.445516   3.830026
    10  H    2.155292   2.783165   2.946403   3.086350   2.177858
    11  H    1.084534   2.177703   3.084546   2.943718   2.783216
    12  H    2.939779   2.777227   2.155330   1.084525   2.177628
    13  H    3.890734   3.502407   2.169767   1.084112   2.178751
    14  H    3.445263   3.827005   3.064239   2.176389   1.084236
    15  H    3.072197   3.832007   3.446093   2.168848   1.084263
    16  H    2.169121   3.503549   3.890867   3.472098   2.178814
    17  H    1.084110   2.178913   3.472804   3.890231   3.503672
    18  H    3.082388   2.177769   1.084533   2.155163   2.776852
                    6          7          8          9         10
     6  C    0.000000
     7  H    3.891557   0.000000
     8  H    3.445822   2.354217   0.000000
     9  H    3.070567   2.669846   1.735921   0.000000
    10  H    1.084536   4.015813   3.816432   2.924547   0.000000
    11  H    2.155345   3.824549   2.343628   3.013320   3.042063
    12  H    3.080859   2.506497   2.915477   3.811540   3.810104
    13  H    3.474410   2.461352   3.963486   4.283084   3.827198
    14  H    2.168934   3.962037   4.682971   4.404464   2.343146
    15  H    2.177122   4.283774   4.409164   4.688360   3.012731
    16  H    1.084107   4.945556   4.281786   3.968879   1.738638
    17  H    2.169228   4.310912   2.671870   2.353663   2.502339
    18  H    2.942295   1.738648   3.014082   2.345305   2.674946
                   11         12         13         14         15
    11  H    0.000000
    12  H    2.670169   0.000000
    13  H    4.012987   1.738984   0.000000
    14  H    3.816390   3.014467   2.354516   0.000000
    15  H    2.926930   2.346040   2.668846   1.735905   0.000000
    16  H    2.502238   3.817643   4.310694   2.673252   2.352569
    17  H    1.738515   4.009334   4.945216   4.281540   3.970061
    18  H    3.809945   3.042049   2.505862   2.912739   3.811385
                   16         17         18
    16  H    0.000000
    17  H    2.462037   0.000000
    18  H    4.012062   3.820658   0.000000
 Stoichiometry    C6H12
 Framework group  C1[X(C6H12)]
 Deg. of freedom    48
 Full point group                 C1      NOp   1
 Largest Abelian subgroup         C1      NOp   1
 Largest concise Abelian subgroup C1      NOp   1
                         Standard orientation:                         
 ---------------------------------------------------------------------
 Center     Atomic      Atomic             Coordinates (Angstroms)
 Number     Number       Type             X           Y           Z
 ---------------------------------------------------------------------
      1          6           0       -0.675369    1.240316    0.373459
      2          6           0       -1.540044    0.001004   -0.000286
      3          6           0       -0.676873   -1.238775   -0.374820
      4          6           0        0.674132   -1.239758    0.375688
      5          6           0        1.539996   -0.002578   -0.001210
      6          6           0        0.678130    1.239390   -0.372775
      7          1           0       -1.223166   -2.149118   -0.155269
      8          1           0       -2.189155   -0.243252    0.833103
      9          1           0       -2.190468    0.245374   -0.832629
     10          1           0        0.488482    1.248681   -1.440560
     11          1           0       -0.485781    1.247130    1.441271
     12          1           0        0.481253   -1.241775    1.442922
     13          1           0        1.218269   -2.151613    0.157206
     14          1           0        2.186162   -0.248996   -0.836263
     15          1           0        2.193439    0.240050    0.829314
     16          1           0        1.224432    2.148292   -0.147526
     17          1           0       -1.219547    2.150963    0.150107
     18          1           0       -0.483750   -1.243325   -1.442010
 ---------------------------------------------------------------------
 Rotational constants (GHZ):      4.3243338      4.1039355      2.4769333
 Standard basis: STO-3G (5D, 7F)
 There are    42 symmetry adapted cartesian basis functions of A   symmetry.
 There are    42 symmetry adapted basis functions of A   symmetry.
    42 basis functions,   126 primitive gaussians,    42 cartesian basis functions
    24 alpha electrons       24 beta electrons
       nuclear repulsion energy       254.3485725268 Hartrees.
 NAtoms=   18 NActive=   18 NUniq=   18 SFac= 1.00D+00 NAtFMM=   60 NAOKFM=F Big=F
 Integral buffers will be    131072 words long.
 Raffenetti 1 integral format.
 Two-electron integral symmetry is turned on.
 One-electron integrals computed using PRISM.
 NBasis=    42 RedAO= T EigKep=  1.94D-01  NBF=    42
 NBsUse=    42 1.00D-06 EigRej= -1.00D+00 NBFU=    42
 Initial guess from the checkpoint file:  "cyclohexane_boat.chk"
 B after Tr=     0.000000    0.000000    0.000000
         Rot=    0.999998    0.000093    0.000026    0.001788 Ang=   0.21 deg.
 ExpMin= 1.69D-01 ExpMax= 7.16D+01 ExpMxC= 7.16D+01 IAcc=1 IRadAn=         1 AccDes= 0.00D+00
 Harris functional with IExCor=  205 and IRadAn=       1 diagonalized for initial guess.
 HarFok:  IExCor=  205 AccDes= 0.00D+00 IRadAn=         1 IDoV= 1 UseB2=F ITyADJ=14
 ICtDFT=  3500011 ScaDFX=  1.000000  1.000000  1.000000  1.000000
 FoFCou: FMM=F IPFlag=           0 FMFlag=      100000 FMFlg1=           0
         NFxFlg=           0 DoJE=T BraDBF=F KetDBF=T FulRan=T
         wScrn=  0.000000 ICntrl=     500 IOpCl=  0 I1Cent=   200000004 NGrid=           0
         NMat0=    1 NMatS0=      1 NMatT0=    0 NMatD0=    1 NMtDS0=    0 NMtDT0=    0
 Petite list used in FoFCou.
 Keep R1 ints in memory in canonical form, NReq=1270665.
 Requested convergence on RMS density matrix=1.00D-08 within 128 cycles.
 Requested convergence on MAX density matrix=1.00D-06.
 Requested convergence on             energy=1.00D-06.
 No special actions if energy rises.
 SCF Done:  E(RHF) =  -231.472578380     A.U. after    8 cycles
            NFock=  8  Conv=0.20D-08     -V/T= 2.0093
 Calling FoFJK, ICntrl=      2127 FMM=F ISym2X=0 I1Cent= 0 IOpClX= 0 NMat=1 NMatS=1 NMatT=0.
 ***** Axes restored to original set *****
 -------------------------------------------------------------------
 Center     Atomic                   Forces (Hartrees/Bohr)
 Number     Number              X              Y              Z
 -------------------------------------------------------------------
      1        6           0.003459371    0.004843541   -0.000537447
      2        6          -0.003350635    0.004968587   -0.000068253
      3        6          -0.005753850   -0.001277780    0.000648599
      4        6          -0.002377379   -0.004167856   -0.003681877
      5        6           0.003272675   -0.004981324    0.000066117
      6        6           0.004766806    0.000629189    0.003561433
      7        1           0.002414474   -0.000808377    0.002504756
      8        1           0.000271959   -0.000695355    0.003512486
      9        1           0.000494430   -0.000525774   -0.003520810
     10        1           0.002241299    0.000669851   -0.002552009
     11        1          -0.000018373    0.000833810    0.003365363
     12        1          -0.001432575   -0.001774859    0.002566564
     13        1           0.001115549    0.003189725   -0.001145307
     14        1           0.001112211    0.001599430   -0.003009421
     15        1          -0.001897818   -0.000430061    0.002999567
     16        1          -0.003370970    0.000167436    0.001146641
     17        1          -0.000201475   -0.002567118   -0.002490498
     18        1          -0.000745697    0.000326936   -0.003365902
 -------------------------------------------------------------------
 Cartesian Forces:  Max     0.005753850 RMS     0.002599740

 GradGradGradGradGradGradGradGradGradGradGradGradGradGradGradGradGradGrad
 Berny optimization.
 Using GEDIIS/GDIIS optimizer.
 FormGI is forming the generalized inverse of G from B-inverse, IUseBI=4.
 Internal  Forces:  Max     0.004846962 RMS     0.001529478
 Search for a local minimum.
 Step number   2 out of a maximum of  108
 All quantities printed in internal units (Hartrees-Bohrs-Radians)
 Mixed Optimization -- RFO/linear search
 Update second derivatives using D2CorX and points    1    2
 DE= -1.55D-02 DEPred=-2.14D-02 R= 7.26D-01
 TightC=F SS=  1.41D+00  RLast= 3.05D-01 DXNew= 5.0454D-01 9.1443D-01
 Trust test= 7.26D-01 RLast= 3.05D-01 DXMaxT set to 5.05D-01
 ITU=  1  0
 Use linear search instead of GDIIS.
     Eigenvalues ---    0.00540   0.00674   0.00931   0.02152   0.02200
     Eigenvalues ---    0.03669   0.03772   0.03996   0.04320   0.04856
     Eigenvalues ---    0.04960   0.04997   0.05436   0.05604   0.05810
     Eigenvalues ---    0.06436   0.08266   0.08270   0.08286   0.08293
     Eigenvalues ---    0.08418   0.08419   0.08822   0.09146   0.12137
     Eigenvalues ---    0.12175   0.12288   0.18413   0.19821   0.21885
     Eigenvalues ---    0.27620   0.28579   0.29350   0.30649   0.30800
     Eigenvalues ---    0.30971   0.31351   0.31357   0.31365   0.31380
     Eigenvalues ---    0.31399   0.31407   0.31410   0.31446   0.31469
     Eigenvalues ---    0.31473   0.31480   0.44100
 RFO step:  Lambda=-2.48664983D-04 EMin= 5.40047249D-03
 Quartic linear search produced a step of -0.11467.
 Iteration  1 RMS(Cart)=  0.01353753 RMS(Int)=  0.00007446
 Iteration  2 RMS(Cart)=  0.00008735 RMS(Int)=  0.00002665
 Iteration  3 RMS(Cart)=  0.00000000 RMS(Int)=  0.00002665
 Variable       Old X    -DE/DX   Delta X   Delta X   Delta X     New X
                                 (Linear)    (Quad)   (Total)
    R1        2.94169  -0.00485  -0.00862  -0.00214  -0.01075   2.93095
    R2        2.92073  -0.00291  -0.00694   0.00154  -0.00544   2.91529
    R3        2.04947   0.00316   0.00815  -0.00242   0.00572   2.05519
    R4        2.04867   0.00330   0.00798  -0.00182   0.00617   2.05484
    R5        2.94117  -0.00477  -0.00855  -0.00191  -0.01044   2.93074
    R6        2.04889   0.00325   0.00809  -0.00210   0.00600   2.05488
    R7        2.04890   0.00325   0.00811  -0.00213   0.00598   2.05488
    R8        2.92052  -0.00292  -0.00681   0.00151  -0.00533   2.91519
    R9        2.04873   0.00327   0.00797  -0.00188   0.00608   2.05482
   R10        2.04947   0.00316   0.00812  -0.00238   0.00574   2.05521
   R11        2.94117  -0.00480  -0.00850  -0.00208  -0.01056   2.93061
   R12        2.04946   0.00316   0.00811  -0.00237   0.00574   2.05519
   R13        2.04867   0.00329   0.00795  -0.00180   0.00615   2.05482
   R14        2.94176  -0.00481  -0.00855  -0.00217  -0.01071   2.93106
   R15        2.04891   0.00324   0.00808  -0.00211   0.00597   2.05488
   R16        2.04896   0.00322   0.00807  -0.00216   0.00591   2.05487
   R17        2.04948   0.00315   0.00813  -0.00242   0.00572   2.05519
   R18        2.04866   0.00330   0.00797  -0.00181   0.00617   2.05483
    A1        1.94984  -0.00022   0.00009  -0.00613  -0.00613   1.94371
    A2        1.91611  -0.00015  -0.00064  -0.00101  -0.00161   1.91450
    A3        1.91820  -0.00059  -0.00063  -0.00481  -0.00544   1.91276
    A4        1.89895   0.00024   0.00041   0.00293   0.00332   1.90227
    A5        1.91836   0.00010  -0.00053   0.00049  -0.00004   1.91832
    A6        1.86013   0.00068   0.00137   0.00933   0.01068   1.87082
    A7        1.96480  -0.00003  -0.00038  -0.00602  -0.00645   1.95835
    A8        1.90430  -0.00030  -0.00027  -0.00167  -0.00197   1.90233
    A9        1.91569  -0.00009  -0.00011  -0.00079  -0.00089   1.91480
   A10        1.91510  -0.00007  -0.00008  -0.00069  -0.00076   1.91435
   A11        1.90445  -0.00027  -0.00030  -0.00124  -0.00157   1.90288
   A12        1.85637   0.00081   0.00122   0.01143   0.01265   1.86901
   A13        1.94815  -0.00023   0.00010  -0.00561  -0.00559   1.94256
   A14        1.91844  -0.00058  -0.00063  -0.00490  -0.00554   1.91290
   A15        1.91653  -0.00018  -0.00057  -0.00146  -0.00199   1.91454
   A16        1.91943   0.00009  -0.00059   0.00043  -0.00017   1.91926
   A17        1.89883   0.00026   0.00043   0.00290   0.00331   1.90214
   A18        1.86030   0.00068   0.00133   0.00941   0.01072   1.87102
   A19        1.94789  -0.00023  -0.00007  -0.00525  -0.00539   1.94250
   A20        1.89907   0.00025   0.00044   0.00279   0.00322   1.90229
   A21        1.91924   0.00012  -0.00052   0.00055   0.00003   1.91926
   A22        1.91635  -0.00015  -0.00055  -0.00122  -0.00173   1.91462
   A23        1.91831  -0.00058  -0.00059  -0.00491  -0.00550   1.91281
   A24        1.86087   0.00065   0.00136   0.00874   0.01009   1.87095
   A25        1.96489  -0.00002  -0.00031  -0.00618  -0.00655   1.95834
   A26        1.91495  -0.00007  -0.00004  -0.00077  -0.00079   1.91415
   A27        1.90462  -0.00029  -0.00035  -0.00136  -0.00174   1.90288
   A28        1.90439  -0.00031  -0.00031  -0.00171  -0.00205   1.90234
   A29        1.91554  -0.00007  -0.00012  -0.00048  -0.00058   1.91496
   A30        1.85629   0.00082   0.00122   0.01152   0.01274   1.86903
   A31        1.94989  -0.00023   0.00008  -0.00609  -0.00610   1.94378
   A32        1.89887   0.00026   0.00034   0.00305   0.00337   1.90225
   A33        1.91822   0.00010  -0.00053   0.00061   0.00008   1.91830
   A34        1.91628  -0.00017  -0.00057  -0.00131  -0.00183   1.91444
   A35        1.91802  -0.00057  -0.00065  -0.00452  -0.00518   1.91285
   A36        1.86032   0.00066   0.00139   0.00906   0.01043   1.87075
    D1        0.52015   0.00013  -0.00005   0.00981   0.00971   0.52986
    D2        2.65061  -0.00019  -0.00059   0.00372   0.00309   2.65370
    D3       -1.60479   0.00056   0.00066   0.01605   0.01668  -1.58811
    D4       -1.58811   0.00008  -0.00019   0.01082   0.01061  -1.57750
    D5        0.54235  -0.00024  -0.00073   0.00473   0.00400   0.54634
    D6        2.57013   0.00051   0.00053   0.01706   0.01758   2.58771
    D7        2.65445  -0.00030  -0.00110   0.00291   0.00179   2.65624
    D8       -1.49828  -0.00063  -0.00164  -0.00319  -0.00483  -1.50311
    D9        0.52950   0.00012  -0.00039   0.00915   0.00876   0.53826
   D10       -1.07937  -0.00066  -0.00047  -0.02271  -0.02319  -1.10255
   D11        1.03905  -0.00085  -0.00090  -0.02621  -0.02713   1.01192
   D12        3.06990   0.00015   0.00066  -0.01324  -0.01257   3.05734
   D13        1.03886  -0.00084  -0.00095  -0.02593  -0.02689   1.01197
   D14       -3.12591  -0.00103  -0.00138  -0.02942  -0.03084   3.12644
   D15       -1.09505  -0.00003   0.00019  -0.01646  -0.01628  -1.11133
   D16        3.06961   0.00017   0.00063  -0.01277  -0.01213   3.05749
   D17       -1.09516  -0.00001   0.00021  -0.01626  -0.01607  -1.11122
   D18        0.93570   0.00099   0.00177  -0.00329  -0.00151   0.93419
   D19        0.52432   0.00011   0.00008   0.00751   0.00754   0.53186
   D20        2.65898  -0.00032  -0.00105   0.00082  -0.00024   2.65875
   D21       -1.58298   0.00006  -0.00014   0.00852   0.00836  -1.57462
   D22       -1.60002   0.00057   0.00073   0.01423   0.01493  -1.58510
   D23        0.53465   0.00013  -0.00039   0.00754   0.00715   0.54180
   D24        2.57587   0.00051   0.00051   0.01523   0.01574   2.59161
   D25        2.65563  -0.00022  -0.00052   0.00159   0.00104   2.65666
   D26       -1.49289  -0.00065  -0.00165  -0.00510  -0.00674  -1.49963
   D27        0.54833  -0.00027  -0.00074   0.00260   0.00185   0.55018
   D28       -1.08697  -0.00063  -0.00058  -0.01986  -0.02044  -1.10741
   D29        1.03039  -0.00081  -0.00103  -0.02286  -0.02390   1.00649
   D30        3.06258   0.00018   0.00057  -0.01043  -0.00986   3.05272
   D31        3.06211   0.00019   0.00056  -0.01010  -0.00954   3.05257
   D32       -1.10371   0.00002   0.00012  -0.01311  -0.01300  -1.11671
   D33        0.92848   0.00100   0.00171  -0.00068   0.00104   0.92952
   D34        1.03063  -0.00083  -0.00095  -0.02333  -0.02429   1.00634
   D35       -3.13520  -0.00101  -0.00139  -0.02633  -0.02775   3.12024
   D36       -1.10301  -0.00002   0.00020  -0.01390  -0.01371  -1.11671
   D37        0.52748   0.00010   0.00004   0.00710   0.00710   0.53457
   D38       -1.59693   0.00056   0.00068   0.01402   0.01467  -1.58226
   D39        2.65879  -0.00021  -0.00056   0.00138   0.00078   2.65958
   D40       -1.57982   0.00004  -0.00009   0.00783   0.00773  -1.57209
   D41        2.57895   0.00051   0.00055   0.01476   0.01530   2.59425
   D42        0.55149  -0.00027  -0.00069   0.00211   0.00142   0.55291
   D43        2.66164  -0.00031  -0.00107   0.00081  -0.00027   2.66137
   D44        0.53723   0.00015  -0.00043   0.00774   0.00730   0.54453
   D45       -1.49023  -0.00063  -0.00167  -0.00491  -0.00658  -1.49681
   D46        0.51689   0.00013  -0.00011   0.01042   0.01026   0.52715
   D47       -1.59142   0.00008  -0.00021   0.01146   0.01124  -1.58018
   D48        2.65091  -0.00030  -0.00118   0.00389   0.00270   2.65361
   D49        2.64728  -0.00019  -0.00059   0.00410   0.00348   2.65076
   D50        0.53897  -0.00025  -0.00069   0.00514   0.00445   0.54342
   D51       -1.50188  -0.00062  -0.00166  -0.00243  -0.00409  -1.50597
   D52       -1.60824   0.00057   0.00064   0.01670   0.01731  -1.59093
   D53        2.56664   0.00052   0.00054   0.01775   0.01828   2.58492
   D54        0.52578   0.00014  -0.00043   0.01017   0.00974   0.53552
         Item               Value     Threshold  Converged?
 Maximum Force            0.004847     0.000450     NO 
 RMS     Force            0.001529     0.000300     NO 
 Maximum Displacement     0.058150     0.001800     NO 
 RMS     Displacement     0.013576     0.001200     NO 
 Predicted change in Energy=-4.079807D-04
 GradGradGradGradGradGradGradGradGradGradGradGradGradGradGradGradGradGrad

                          Input orientation:                          
 ---------------------------------------------------------------------
 Center     Atomic      Atomic             Coordinates (Angstroms)
 Number     Number       Type             X           Y           Z
 ---------------------------------------------------------------------
      1          6           0       -4.364440   -0.028169    0.007326
      2          6           0       -2.813471   -0.030867   -0.000353
      3          6           0       -2.224889    1.403971   -0.006535
      4          6           0       -3.154648    2.394217    0.724721
      5          6           0       -4.520928    2.522331    0.002304
      6          6           0       -4.927945    1.210822   -0.718830
      7          1           0       -1.244737    1.398210    0.464234
      8          1           0       -2.456136   -0.569573    0.874027
      9          1           0       -2.451990   -0.566097   -0.875163
     10          1           0       -4.554119    1.222980   -1.740052
     11          1           0       -4.725859   -0.032061    1.033070
     12          1           0       -3.309858    2.047381    1.743742
     13          1           0       -2.681598    3.371358    0.786230
     14          1           0       -4.475374    3.327732   -0.726865
     15          1           0       -5.282611    2.792631    0.729765
     16          1           0       -6.011987    1.146379   -0.774255
     17          1           0       -4.733003   -0.934720   -0.466705
     18          1           0       -2.087234    1.739257   -1.031935
 ---------------------------------------------------------------------
                    Distance matrix (angstroms):
                    1          2          3          4          5
     1  C    0.000000
     2  C    1.550990   0.000000
     3  C    2.574663   1.550878   0.000000
     4  C    2.801107   2.554048   1.542651   0.000000
     5  C    2.555301   3.071520   2.553939   1.550813   0.000000
     6  C    1.542705   2.555191   2.801996   2.574654   1.551049
     7  H    3.460616   2.172332   1.087361   2.169710   3.494346
     8  H    2.164697   1.087398   2.173417   3.048649   3.818788
     9  H    2.173849   1.087397   2.165007   3.437559   3.819534
    10  H    2.157470   2.761980   2.909149   3.066826   2.173757
    11  H    1.087562   2.173751   3.065586   2.906993   2.762136
    12  H    2.904340   2.758148   2.157453   1.087562   2.173678
    13  H    3.872393   3.494458   2.169717   1.087366   2.172216
    14  H    3.437064   3.817057   3.047033   2.173216   1.087397
    15  H    3.053174   3.821238   3.438048   2.164945   1.087392
    16  H    2.169065   3.495044   3.872707   3.459540   2.172451
    17  H    1.087373   2.172335   3.460038   3.872018   3.495161
    18  H    3.064233   2.173687   1.087571   2.157355   2.757848
                    6          7          8          9         10
     6  C    0.000000
     7  H    3.873083   0.000000
     8  H    3.437564   2.346825   0.000000
     9  H    3.051596   2.666448   1.749199   0.000000
    10  H    1.087561   3.980149   3.801077   2.892710   0.000000
    11  H    2.157487   3.806240   2.337918   3.016128   3.048742
    12  H    3.063054   2.514615   2.886813   3.798008   3.790072
    13  H    3.461097   2.462025   3.948352   4.279778   3.808407
    14  H    2.164761   3.946997   4.672169   4.390669   2.337248
    15  H    2.174013   4.280110   4.394791   4.676458   3.015709
    16  H    1.087369   4.931931   4.278481   3.951751   1.750432
    17  H    2.169083   4.298512   2.667399   2.346432   2.511788
    18  H    2.906358   1.750609   3.016534   2.339290   2.617918
                   11         12         13         14         15
    11  H    0.000000
    12  H    2.614229   0.000000
    13  H    3.977838   1.750559   0.000000
    14  H    3.801095   3.016890   2.347124   0.000000
    15  H    2.894971   2.339937   2.665216   1.749209   0.000000
    16  H    2.511826   3.801791   4.298504   2.668656   2.346106
    17  H    1.750476   3.975468   4.931573   4.278148   3.953069
    18  H    3.790007   3.048628   2.514507   2.884360   3.797843
                   16         17         18
    16  H    0.000000
    17  H    2.461983   0.000000
    18  H    3.977636   3.803910   0.000000
 Stoichiometry    C6H12
 Framework group  C1[X(C6H12)]
 Deg. of freedom    48
 Full point group                 C1      NOp   1
 Largest Abelian subgroup         C1      NOp   1
 Largest concise Abelian subgroup C1      NOp   1
                         Standard orientation:                         
 ---------------------------------------------------------------------
 Center     Atomic      Atomic             Coordinates (Angstroms)
 Number     Number       Type             X           Y           Z
 ---------------------------------------------------------------------
      1          6           0       -0.670410    1.230083    0.380423
      2          6           0       -1.535762    0.000551   -0.000346
      3          6           0       -0.671174   -1.229362   -0.381168
      4          6           0        0.669586   -1.229716    0.381810
      5          6           0        1.535757   -0.001581   -0.000884
      6          6           0        0.671991    1.229721   -0.379773
      7          1           0       -1.221017   -2.142462   -0.166053
      8          1           0       -2.181476   -0.250979    0.837641
      9          1           0       -2.182348    0.252286   -0.837597
     10          1           0        0.473211    1.222838   -1.448992
     11          1           0       -0.471664    1.221388    1.449635
     12          1           0        0.468637   -1.217880    1.450580
     13          1           0        1.218247   -2.143825    0.167940
     14          1           0        2.178968   -0.254554   -0.840358
     15          1           0        2.184812    0.248732    0.834873
     16          1           0        1.221665    2.142071   -0.161032
     17          1           0       -1.218910    2.143442    0.162931
     18          1           0       -0.470057   -1.219238   -1.449934
 ---------------------------------------------------------------------
 Rotational constants (GHZ):      4.3669286      4.1201619      2.5062599
 Standard basis: STO-3G (5D, 7F)
 There are    42 symmetry adapted cartesian basis functions of A   symmetry.
 There are    42 symmetry adapted basis functions of A   symmetry.
    42 basis functions,   126 primitive gaussians,    42 cartesian basis functions
    24 alpha electrons       24 beta electrons
       nuclear repulsion energy       255.0753177383 Hartrees.
 NAtoms=   18 NActive=   18 NUniq=   18 SFac= 1.00D+00 NAtFMM=   60 NAOKFM=F Big=F
 Integral buffers will be    131072 words long.
 Raffenetti 1 integral format.
 Two-electron integral symmetry is turned on.
 One-electron integrals computed using PRISM.
 NBasis=    42 RedAO= T EigKep=  1.94D-01  NBF=    42
 NBsUse=    42 1.00D-06 EigRej= -1.00D+00 NBFU=    42
 Initial guess from the checkpoint file:  "cyclohexane_boat.chk"
 B after Tr=     0.000000    0.000000    0.000000
         Rot=    1.000000   -0.000005   -0.000062   -0.000231 Ang=  -0.03 deg.
 ExpMin= 1.69D-01 ExpMax= 7.16D+01 ExpMxC= 7.16D+01 IAcc=1 IRadAn=         1 AccDes= 0.00D+00
 Harris functional with IExCor=  205 and IRadAn=       1 diagonalized for initial guess.
 HarFok:  IExCor=  205 AccDes= 0.00D+00 IRadAn=         1 IDoV= 1 UseB2=F ITyADJ=14
 ICtDFT=  3500011 ScaDFX=  1.000000  1.000000  1.000000  1.000000
 FoFCou: FMM=F IPFlag=           0 FMFlag=      100000 FMFlg1=           0
         NFxFlg=           0 DoJE=T BraDBF=F KetDBF=T FulRan=T
         wScrn=  0.000000 ICntrl=     500 IOpCl=  0 I1Cent=   200000004 NGrid=           0
         NMat0=    1 NMatS0=      1 NMatT0=    0 NMatD0=    1 NMtDS0=    0 NMtDT0=    0
 Petite list used in FoFCou.
 Keep R1 ints in memory in canonical form, NReq=1270893.
 Requested convergence on RMS density matrix=1.00D-08 within 128 cycles.
 Requested convergence on MAX density matrix=1.00D-06.
 Requested convergence on             energy=1.00D-06.
 No special actions if energy rises.
 SCF Done:  E(RHF) =  -231.472963778     A.U. after    7 cycles
            NFock=  7  Conv=0.66D-08     -V/T= 2.0093
 Calling FoFJK, ICntrl=      2127 FMM=F ISym2X=0 I1Cent= 0 IOpClX= 0 NMat=1 NMatS=1 NMatT=0.
 ***** Axes restored to original set *****
 -------------------------------------------------------------------
 Center     Atomic                   Forces (Hartrees/Bohr)
 Number     Number              X              Y              Z
 -------------------------------------------------------------------
      1        6           0.000143018    0.000113515   -0.000949458
      2        6          -0.000387429    0.000542815    0.000037238
      3        6          -0.000199811   -0.000090927    0.000894415
      4        6           0.000303987    0.000170220   -0.000851985
      5        6           0.000377205   -0.000556622   -0.000046130
      6        6          -0.000301209   -0.000211078    0.000884372
      7        1           0.000370217    0.000219908   -0.000160802
      8        1           0.000210510   -0.000192646    0.000029525
      9        1           0.000083026   -0.000229365   -0.000054308
     10        1           0.000119707   -0.000163932   -0.000076194
     11        1          -0.000137336    0.000138779    0.000065455
     12        1           0.000117082   -0.000136517    0.000091304
     13        1           0.000212078    0.000166714    0.000365442
     14        1          -0.000105606    0.000273281    0.000014247
     15        1          -0.000200647    0.000148804    0.000016456
     16        1          -0.000233849   -0.000102448   -0.000401771
     17        1          -0.000339630   -0.000275518    0.000198492
     18        1          -0.000031315    0.000185017   -0.000056297
 -------------------------------------------------------------------
 Cartesian Forces:  Max     0.000949458 RMS     0.000327301

 GradGradGradGradGradGradGradGradGradGradGradGradGradGradGradGradGradGrad
 Berny optimization.
 Using GEDIIS/GDIIS optimizer.
 FormGI is forming the generalized inverse of G from B-inverse, IUseBI=4.
 Internal  Forces:  Max     0.000418227 RMS     0.000147092
 Search for a local minimum.
 Step number   3 out of a maximum of  108
 All quantities printed in internal units (Hartrees-Bohrs-Radians)
 Mixed Optimization -- En-DIIS/RFO-DIIS
 Update second derivatives using D2CorX and points    1    2    3
 DE= -3.85D-04 DEPred=-4.08D-04 R= 9.45D-01
 TightC=F SS=  1.41D+00  RLast= 1.10D-01 DXNew= 8.4853D-01 3.2964D-01
 Trust test= 9.45D-01 RLast= 1.10D-01 DXMaxT set to 5.05D-01
 ITU=  1  1  0
 Use linear search instead of GDIIS.
     Eigenvalues ---    0.00540   0.00677   0.00894   0.02176   0.02228
     Eigenvalues ---    0.03730   0.03827   0.04066   0.04724   0.04971
     Eigenvalues ---    0.04984   0.05021   0.05466   0.05634   0.05836
     Eigenvalues ---    0.06467   0.08194   0.08200   0.08207   0.08330
     Eigenvalues ---    0.08332   0.08401   0.08745   0.09085   0.12080
     Eigenvalues ---    0.12115   0.12237   0.18343   0.19784   0.21902
     Eigenvalues ---    0.27556   0.28573   0.29528   0.30649   0.30802
     Eigenvalues ---    0.31158   0.31351   0.31357   0.31365   0.31381
     Eigenvalues ---    0.31399   0.31407   0.31410   0.31446   0.31469
     Eigenvalues ---    0.31473   0.31480   0.43499
 RFO step:  Lambda=-2.39414389D-05 EMin= 5.40023338D-03
 Quartic linear search produced a step of -0.03233.
 Iteration  1 RMS(Cart)=  0.00244589 RMS(Int)=  0.00000509
 Iteration  2 RMS(Cart)=  0.00000482 RMS(Int)=  0.00000189
 Iteration  3 RMS(Cart)=  0.00000000 RMS(Int)=  0.00000189
 Variable       Old X    -DE/DX   Delta X   Delta X   Delta X     New X
                                 (Linear)    (Quad)   (Total)
    R1        2.93095   0.00029   0.00035   0.00023   0.00057   2.93152
    R2        2.91529  -0.00040   0.00018  -0.00196  -0.00179   2.91350
    R3        2.05519   0.00011  -0.00019   0.00077   0.00059   2.05578
    R4        2.05484   0.00026  -0.00020   0.00126   0.00106   2.05590
    R5        2.93074   0.00030   0.00034   0.00033   0.00067   2.93141
    R6        2.05488   0.00019  -0.00019   0.00104   0.00084   2.05573
    R7        2.05488   0.00018  -0.00019   0.00102   0.00083   2.05571
    R8        2.91519  -0.00042   0.00017  -0.00193  -0.00176   2.91343
    R9        2.05482   0.00026  -0.00020   0.00127   0.00107   2.05589
   R10        2.05521   0.00011  -0.00019   0.00077   0.00059   2.05580
   R11        2.93061   0.00030   0.00034   0.00035   0.00069   2.93130
   R12        2.05519   0.00011  -0.00019   0.00079   0.00060   2.05580
   R13        2.05482   0.00026  -0.00020   0.00127   0.00107   2.05590
   R14        2.93106   0.00028   0.00035   0.00023   0.00057   2.93163
   R15        2.05488   0.00019  -0.00019   0.00104   0.00084   2.05573
   R16        2.05487   0.00019  -0.00019   0.00103   0.00084   2.05571
   R17        2.05519   0.00011  -0.00018   0.00078   0.00060   2.05579
   R18        2.05483   0.00026  -0.00020   0.00126   0.00107   2.05590
    A1        1.94371  -0.00007   0.00020  -0.00102  -0.00082   1.94289
    A2        1.91450   0.00003   0.00005  -0.00047  -0.00042   1.91408
    A3        1.91276   0.00020   0.00018   0.00269   0.00287   1.91562
    A4        1.90227  -0.00008  -0.00011  -0.00243  -0.00254   1.89973
    A5        1.91832   0.00002   0.00000   0.00192   0.00192   1.92024
    A6        1.87082  -0.00010  -0.00035  -0.00071  -0.00106   1.86976
    A7        1.95835   0.00020   0.00021   0.00104   0.00125   1.95960
    A8        1.90233   0.00010   0.00006   0.00070   0.00076   1.90309
    A9        1.91480  -0.00017   0.00003  -0.00067  -0.00064   1.91416
   A10        1.91435  -0.00017   0.00002  -0.00043  -0.00040   1.91394
   A11        1.90288   0.00009   0.00005   0.00037   0.00042   1.90330
   A12        1.86901  -0.00007  -0.00041  -0.00112  -0.00153   1.86748
   A13        1.94256  -0.00007   0.00018  -0.00066  -0.00048   1.94208
   A14        1.91290   0.00021   0.00018   0.00260   0.00278   1.91568
   A15        1.91454   0.00004   0.00006  -0.00036  -0.00030   1.91424
   A16        1.91926   0.00000   0.00001   0.00150   0.00150   1.92076
   A17        1.90214  -0.00008  -0.00011  -0.00229  -0.00240   1.89974
   A18        1.87102  -0.00010  -0.00035  -0.00082  -0.00116   1.86986
   A19        1.94250  -0.00008   0.00017  -0.00068  -0.00050   1.94199
   A20        1.90229  -0.00008  -0.00010  -0.00239  -0.00249   1.89979
   A21        1.91926   0.00000   0.00000   0.00155   0.00154   1.92080
   A22        1.91462   0.00003   0.00006  -0.00040  -0.00035   1.91427
   A23        1.91281   0.00021   0.00018   0.00265   0.00283   1.91564
   A24        1.87095  -0.00010  -0.00033  -0.00076  -0.00109   1.86986
   A25        1.95834   0.00020   0.00021   0.00104   0.00126   1.95960
   A26        1.91415  -0.00016   0.00003  -0.00036  -0.00033   1.91382
   A27        1.90288   0.00009   0.00006   0.00035   0.00041   1.90329
   A28        1.90234   0.00010   0.00007   0.00067   0.00074   1.90308
   A29        1.91496  -0.00017   0.00002  -0.00068  -0.00066   1.91430
   A30        1.86903  -0.00007  -0.00041  -0.00114  -0.00155   1.86748
   A31        1.94378  -0.00007   0.00020  -0.00101  -0.00081   1.94297
   A32        1.90225  -0.00009  -0.00011  -0.00246  -0.00257   1.89967
   A33        1.91830   0.00002   0.00000   0.00191   0.00190   1.92020
   A34        1.91444   0.00003   0.00006  -0.00043  -0.00038   1.91406
   A35        1.91285   0.00020   0.00017   0.00265   0.00282   1.91567
   A36        1.87075  -0.00009  -0.00034  -0.00067  -0.00101   1.86974
    D1        0.52986   0.00003  -0.00031   0.00097   0.00066   0.53052
    D2        2.65370   0.00002  -0.00010   0.00160   0.00150   2.65521
    D3       -1.58811  -0.00010  -0.00054   0.00028  -0.00026  -1.58837
    D4       -1.57750   0.00016  -0.00034   0.00499   0.00465  -1.57284
    D5        0.54634   0.00015  -0.00013   0.00562   0.00549   0.55184
    D6        2.58771   0.00003  -0.00057   0.00430   0.00373   2.59144
    D7        2.65624   0.00015  -0.00006   0.00455   0.00450   2.66073
    D8       -1.50311   0.00014   0.00016   0.00518   0.00534  -1.49777
    D9        0.53826   0.00002  -0.00028   0.00386   0.00357   0.54184
   D10       -1.10255   0.00020   0.00075  -0.00068   0.00007  -1.10248
   D11        1.01192   0.00014   0.00088  -0.00350  -0.00262   1.00930
   D12        3.05734  -0.00002   0.00041  -0.00466  -0.00425   3.05308
   D13        1.01197   0.00013   0.00087  -0.00353  -0.00266   1.00931
   D14        3.12644   0.00007   0.00100  -0.00635  -0.00535   3.12110
   D15       -1.11133  -0.00008   0.00053  -0.00751  -0.00698  -1.11831
   D16        3.05749  -0.00002   0.00039  -0.00471  -0.00432   3.05317
[...]
 66874,0.2494774,-0.6471872,0.0686096,1.9462547,-0.1697653,-0.1446442,0
 .0493971,-0.0240281,-0.1358165,-0.379768,5.4556469,2.0408865,2.4166563
 ,0.8074074,0.2605965,0.3915414,0.0462416,0.373645,1.7685989,5.8100133,
 0.4182237,0.9153851,0.0804011,-0.2672303,0.3844564,0.4552979,0.9551492
 ,1.9655211,1.1257931,-0.0658499,1.8438065,-0.2198404,-1.0592187,-0.014
 8383,-0.1876583,0.0986803,-0.5572127,4.5401515,0.0222364,-2.1260181,0.
 3941795,0.1530241,0.079808,-1.0227897,-0.4865422,2.0850871,-2.790303,-
 3.6533544,1.2984671,-0.5249921,1.9673104,-0.3994018,-0.2924835,0.31641
 43,-2.0072969,1.7304846,-0.3628687,1.2194769,0.3248296,0.7940063,-0.47
 31125,0.0768224,-1.7402473,1.2510804,2.7911635,-6.8253903,-0.2042688,0
 .0183469,-1.0901637,-0.0687382,-0.0888768,-0.0961938,-2.23832,-0.17674
 04,-0.0421821,-0.0628535,-0.0100723,-0.6122738,-0.017312,0.4332287,-2.
 1786358,-0.1303269,-1.1105333,-1.5413872,-2.4013363,-0.8242848,-0.8847
 525,-0.1506076,-0.303871,-0.430706,-1.7481115,-5.6268067,-0.0818324,-1
 .3384891,-0.0538045,-0.2766321,-0.1737176,-0.6787152,-1.1788971,-1.963
 0474,-1.2443616,1.4773002,0.8137544,-0.339665,-1.8638499,-0.2489555,0.
 4306122,0.1481861,0.2510129,1.2365314,-0.3333956,-1.9620583,0.3687042,
 -0.1255698,-0.2967742,-0.221863,1.1076099,0.9970491,-4.4914111\HyperPo
 lar=-2.5446018,0.1295943,1.323571,1.7206132,3.0755805,-1.2680995,-3.04
 36733,1.2272388,-1.8460103,-0.025575\PG=C01 [X(C6H12)]\NImag=0\\0.7132
 8794,0.05063672,0.80592086,-0.02582268,0.05879787,0.85113322,-0.301228
 30,-0.00157224,0.00654526,0.71103732,0.00487985,-0.11608321,-0.0030802
 5,-0.05798477,0.75895545,0.00305441,-0.00066312,-0.12196991,-0.0030007
 7,-0.00205367,0.88426126,-0.01573702,-0.04110523,-0.00325082,-0.141860
 05,-0.06732959,0.00043927,0.82849209,-0.00752975,0.00434283,-0.0027188
 2,-0.06089587,-0.27551656,0.00286715,0.00301025,0.69122581,-0.00375212
 ,-0.00191400,0.00008872,-0.00046188,0.00698406,-0.12194199,0.04456105,
 -0.04678406,0.85071790,0.00068108,0.00058038,-0.00064109,0.01632777,-0
 .00744287,-0.01021054,-0.18622114,0.07287092,0.05718550,0.71077268,0.0
 0081167,0.00348792,-0.00032736,0.02206225,-0.02981798,-0.02406341,0.07
 407032,-0.19486095,-0.05682193,0.07374911,0.83842441,0.00021142,0.0011
 8180,0.00201591,-0.00264686,-0.00314513,0.00081065,0.05799455,-0.05671
 503,-0.16969341,-0.01716634,-0.03335137,0.82133912,0.00749412,0.008841
 19,0.00953540,0.00102975,-0.00198090,-0.00048408,-0.02896651,0.0066850
 5,-0.01006537,-0.25809498,0.01225632,-0.07833297,0.75406702,-0.0084134
 5,-0.03529421,-0.01485221,-0.00198272,0.00266808,-0.00032037,0.0238542
 6,0.00103725,0.01443028,0.01541353,-0.11940435,0.01366215,-0.02924535,
 0.77815128,0.00916444,0.01777650,0.01518787,0.00038224,0.00025827,-0.0
 0011747,0.02006052,0.00160344,0.01524237,-0.07326899,0.00883306,-0.161
 87494,-0.08039559,-0.05356895,0.82203457,-0.14193682,0.05600466,-0.030
 67705,-0.01797126,0.03624761,-0.02599371,0.00357778,-0.00037749,-0.000
 54225,-0.01159249,-0.03519648,-0.01639495,-0.12997849,-0.04095123,-0.0
 1993395,0.87136563,0.05475914,-0.23957831,0.07421063,0.00669921,0.0044
 8155,-0.00028458,-0.00061880,0.00059860,-0.00046918,-0.00782084,0.0062
 4608,0.00074056,-0.03777889,-0.24740784,-0.07095565,0.00734884,0.67738
 971,-0.03023497,0.07496579,-0.16922604,-0.00386096,-0.00131377,0.00087
 033,0.00117421,-0.00025384,0.00201213,-0.00560542,-0.01545742,-0.00595
 914,-0.01741650,-0.07754926,-0.16183953,-0.03757830,-0.00339488,0.8214
 8384,0.00046916,-0.00168375,-0.00051957,-0.00935323,0.00238203,-0.0045
 1084,-0.38401960,0.00266923,-0.15085229,-0.01813764,-0.00159822,-0.012
 77304,-0.00065398,0.00225120,0.00300770,0.00078943,0.00018589,0.000521
 19,0.39758825,-0.00021938,-0.00717549,-0.00072283,-0.03920019,0.000832
 71,-0.01684545,0.00118270,-0.07238383,0.00273993,0.02664476,-0.0001362
 8,0.01512503,0.00251356,-0.00328350,-0.00492667,0.00013452,-0.00088073
 ,0.00000163,-0.00256041,0.07632093,0.00086031,0.00126084,0.00058613,0.
 00460281,0.00286486,0.00199102,-0.14875808,0.00309921,-0.15387518,0.02
 424365,-0.00099785,0.01248534,0.00202768,-0.00344461,-0.00269964,-0.00
 017423,-0.00027861,-0.00042206,0.15761164,-0.00225046,0.14957613,-0.01
 401352,0.02345001,-0.03508859,-0.11343235,0.06418203,-0.10114131,0.004
 36478,-0.01126248,0.01679176,-0.00090578,-0.00000299,0.00019166,-0.000
 18800,-0.00070624,-0.00042146,-0.00746158,-0.00263596,0.00060540,0.001
 49481,0.00006050,0.00086760,0.12080406,-0.00119573,0.00211654,-0.00151
 349,0.06317318,-0.16799023,0.14877908,0.01098205,-0.01689130,0.0350287
 7,-0.00094710,0.00082761,0.00056905,-0.00017936,0.00019665,-0.00009285
 ,-0.00019914,-0.00009195,0.00019891,0.00154854,0.00318130,-0.00005050,
 -0.06198143,0.16970591,0.00571836,-0.00285056,0.00514809,-0.09896503,0
 .14678516,-0.32887949,0.00150520,-0.00497044,0.00547116,-0.00042011,0.
 00001070,0.00028806,0.00006682,0.00003379,0.00003771,0.00161837,-0.000
 28613,0.00053891,0.00005889,-0.00036356,0.00109674,0.10500587,-0.15872
 312,0.33512553,-0.01383991,0.01844063,0.03882881,-0.11492055,0.0635293
 8,0.09881836,0.00759986,-0.01007764,-0.01480868,-0.00216089,-0.0023882
 9,0.00041340,-0.00017163,-0.00018667,-0.00024703,0.00023300,-0.0014193
 4,0.00059569,-0.00006909,0.00025172,0.00029655,0.00650719,-0.00957789,
 -0.01520388,0.11862275,-0.00371914,0.00136060,0.00215804,0.06453739,-0
 .16575345,-0.15003558,0.01449318,-0.01945278,-0.03192542,-0.00482389,-
 0.00540081,0.00047561,-0.00071191,0.00018048,-0.00035448,-0.00047553,-
 0.00031902,-0.00003846,-0.00017339,-0.00028101,0.00015907,-0.00904744,
 0.01419547,0.02211249,-0.06081539,0.17106081,-0.00400484,0.00325890,0.
 00544059,0.09779876,-0.14725587,-0.32963668,-0.00043152,0.00633916,0.0
 0512010,0.00034889,0.00159669,0.00054184,0.00005522,0.00004835,0.00003
 731,-0.00015224,-0.00039109,0.00028488,-0.00008582,0.00021713,-0.00003
 322,0.01459019,-0.02241615,-0.02142988,-0.10651740,0.15739898,0.335935
 20,0.00771121,0.00107215,-0.02024663,0.00120025,-0.00074811,-0.0003048
 5,-0.00065337,-0.00014038,-0.00010901,0.00044005,-0.00018883,0.0003470
 5,0.00651711,-0.00030639,-0.01425455,-0.13070578,-0.00272443,0.1237981
 1,0.00006473,0.00000102,0.00004700,0.00011066,-0.00006562,0.00009376,0
 .00010194,0.00004037,0.00014159,0.12511559,-0.01527245,0.00046958,0.03
 779272,-0.00139809,0.00143055,-0.00099872,0.00006180,-0.00027342,-0.00
 022283,0.00090809,-0.00061216,0.00039298,0.01665804,-0.00190348,-0.036
 41156,-0.00226184,-0.07252724,0.00449193,-0.00002209,0.00018204,0.0000
 8550,-0.00016578,0.00005544,-0.00015371,0.00022977,0.00005793,-0.00010
 747,0.00160968,0.07940880,0.00729003,-0.00133267,-0.01554768,0.0009713
 8,-0.00092845,0.00114256,0.00015121,-0.00004483,-0.00009112,0.00029044
 ,0.00014872,0.00023420,0.00786120,0.00225332,-0.01194440,0.12666561,0.
 00370394,-0.40770388,0.00000255,-0.00001815,0.00021145,0.00023907,-0.0
 0008266,0.00016850,-0.00029165,0.00009374,-0.00001126,-0.13285028,-0.0
 0550761,0.42239267,-0.11524968,-0.00208089,0.11741178,-0.01389126,0.00
 436655,0.04216632,0.00010799,0.00124274,-0.00012578,-0.00037886,0.0000
 0012,0.00010176,0.00019893,-0.00072766,0.00031972,0.00702429,-0.000389
 57,-0.01959321,-0.00000698,-0.00025688,-0.00006045,0.00350188,-0.00050
 220,0.00066887,-0.00748407,-0.00151109,-0.00081154,-0.00088880,0.00392
 620,-0.00127377,0.11953143,-0.00371233,-0.07996562,-0.00404937,0.00128
 820,0.00006600,0.00065434,0.00023891,0.00005268,-0.00008261,-0.0001664
 2,-0.00045559,-0.00023184,-0.00054808,0.00245949,-0.00002949,-0.013359
 12,0.00107918,0.03909142,0.00000070,0.00003979,-0.00006367,0.00041242,
 0.00069955,-0.00061969,0.00089581,0.00057652,-0.00005920,0.00371845,-0
 .00606348,0.00279713,-0.00301095,0.07571633,0.11669272,-0.00646960,-0.
 41572849,-0.00540693,0.00006119,0.00649639,-0.00023156,0.00040456,-0.0
 0008321,-0.00022587,-0.00031404,-0.00018881,-0.00009446,-0.00138676,0.
 00111271,0.00659782,-0.00216094,-0.01546621,-0.00000366,-0.00013031,0.
 00004610,-0.00068071,0.00011266,0.00161475,-0.00145059,0.00009086,0.00
 067771,-0.00159149,0.00265999,0.00007114,-0.12115318,0.00197066,0.4316
 7586,-0.00035986,-0.00006554,-0.00024869,0.00064336,-0.00116853,-0.001
 04485,-0.00346635,-0.01075259,0.02715654,-0.08281263,-0.02229678,0.051
 41162,0.00514786,0.01741132,-0.03904884,-0.00017581,0.00116544,0.00051
 236,0.00127776,-0.00096391,-0.00068100,0.00015894,0.00020583,-0.000045
 30,-0.00001902,-0.00011372,-0.00010662,-0.00000089,-0.00018914,0.00003
 436,-0.00001372,-0.00053937,-0.00023900,0.08718407,-0.00026517,-0.0005
 7589,-0.00001936,-0.00051378,0.00198675,0.00009339,0.00567855,0.011750
 83,-0.03302877,-0.02275938,-0.12138953,0.11387173,0.00025780,-0.000518
 70,0.00078287,0.00008238,0.00003644,0.00016865,-0.00103096,0.00069742,
 0.00083145,0.00001725,0.00000127,0.00017214,-0.00001233,0.00018379,0.0
 0014485,0.00007551,0.00004560,0.00008690,-0.00046280,-0.00059002,-0.00
 047899,0.01753175,0.11832824,0.00001608,0.00015633,-0.00008955,-0.0004
 8675,0.00126077,0.00114964,0.00156284,0.00734076,-0.01564792,0.0517620
 4,0.11679726,-0.40675021,0.00509469,0.00645765,-0.01194497,0.00026004,
 0.00020945,0.00024071,-0.00044730,0.00026897,0.00117049,-0.00002502,-0
 .00030610,-0.00001126,0.00001510,0.00025381,0.00017014,0.00009388,-0.0
 0000253,0.00016636,-0.00012748,-0.00010217,0.00027937,-0.05581372,-0.1
 2190172,0.42140637,-0.00065966,0.00054710,-0.00009640,-0.00456322,0.00
 265489,0.00400661,0.01386299,0.02961749,0.00048673,-0.14542868,-0.1515
 8563,-0.00641279,-0.01335846,-0.03399648,-0.00262810,-0.00514845,0.002
 72027,-0.00129153,0.00158406,-0.00061297,-0.00062355,0.00029793,0.0001
 7045,0.00006731,0.00075986,0.00144884,-0.00023114,-0.00010463,-0.00024
 072,-0.00003881,0.00020786,-0.00002223,0.00000697,-0.00162450,-0.00367
 206,-0.00330542,0.15043035,0.00067463,0.00036781,0.00013937,0.00342541
 ,-0.00065224,-0.00296630,-0.01276158,-0.01990513,0.00173296,-0.1508349
 5,-0.38370535,-0.01473564,0.00685423,0.00910032,0.00224729,0.00199295,
 -0.00024767,0.00095246,-0.00070225,0.00144781,0.00080960,-0.00012956,-
 0.00000698,-0.00001398,-0.00046246,-0.00106350,0.00011551,0.00002393,0
 .00011110,-0.00002729,-0.00000698,0.00011283,-0.00005321,-0.00348875,-
 0.00703840,-0.00679172,0.15555689,0.39811217,0.00045913,0.00063197,-0.
 00022346,0.00309768,-0.00162337,-0.00141710,-0.01071216,-0.02076295,0.
 00025289,-0.00716692,-0.01710162,-0.08114400,-0.01039066,-0.01949653,-
 0.00227497,-0.00401620,0.00099099,-0.00072464,-0.00036764,0.00101315,0
 .00065281,-0.00007469,-0.00026981,-0.00009515,-0.00039980,-0.00076974,
 0.00025441,0.00000940,-0.00008168,0.00007186,-0.00010672,-0.00005216,0
 .00013895,0.01971620,0.04094691,0.00777572,0.01041725,0.01771501,0.074
 93581,-0.00087923,-0.00060931,-0.00140733,-0.00013011,-0.00019407,0.00
 006285,0.00058762,-0.00114623,-0.00090140,0.00338643,0.02922412,-0.031
 36783,-0.07894060,-0.01089198,0.01640755,0.00130228,-0.00721806,0.0079
 4881,-0.00010570,0.00014286,0.00034445,0.00010340,-0.00002527,0.000000
 08,0.00009139,0.00010688,0.00003401,0.00087649,0.00071436,-0.00004266,
 -0.00002038,0.00006589,-0.00007211,-0.00659119,0.00091807,-0.00214130,
 0.00292639,0.00057522,0.00101188,0.07543400,-0.00317685,-0.00367145,-0
 .00383550,-0.00072490,0.00014565,0.00001781,-0.00043268,-0.00025195,-0
 .00033748,-0.00299568,0.00128825,-0.00198002,-0.01164667,-0.28268129,0
 .19148157,-0.00001473,-0.02439649,0.02397364,-0.00002977,0.00022399,0.
 00003668,0.00015611,0.00007191,-0.00000804,0.00012735,0.00006384,-0.00
 000611,0.00071868,0.00289070,0.00162754,-0.00000484,0.00030916,-0.0002
 3648,-0.00081062,0.00065148,-0.00070192,-0.00054927,0.00147928,-0.0010
 7442,0.01590764,0.29313766,-0.00219170,-0.00369615,-0.00245947,-0.0004
 1774,-0.00011907,0.00002985,0.00012666,-0.00040748,-0.00010715,0.00229
 929,0.01061436,-0.01173836,0.01745320,0.18864619,-0.24867639,-0.001083
 90,-0.02228134,0.01634181,-0.00002455,0.00012262,0.00007878,0.00012752
 ,0.00001097,-0.00000719,0.00004089,0.00007932,0.00003776,0.00026902,-0
 .00014004,0.00205334,0.00001989,-0.00008707,0.00004523,-0.00348307,0.0
 0048934,-0.00029828,0.00116745,0.00021338,0.00136182,-0.01109678,-0.19
 667992,0.25707100,-0.00069187,0.00008946,-0.00066249,-0.00021987,-0.00
 068953,0.00004002,-0.00461589,-0.00162144,-0.00410053,-0.02317406,0.01
 016731,0.02522104,-0.26073640,0.06400874,0.18306752,0.01088136,-0.0061
 2677,-0.01385452,-0.00076611,0.00134062,0.00084318,0.00015099,0.000103
 00,0.00000725,0.00012287,0.00014863,-0.00000717,-0.00037705,-0.0033821
 5,-0.00146990,0.00008297,0.00007984,0.00008003,0.00310255,-0.00020971,
 0.00147853,-0.00001110,-0.00008452,-0.00027646,0.00161965,0.00257230,-
 0.00382062,0.27242605,-0.00062869,0.00099236,-0.00071141,-0.00016079,0
 .00023711,0.00005190,0.00093589,0.00006149,0.00016998,0.00295117,0.000
 07412,-0.00185452,0.06477335,-0.10103831,-0.05843982,0.02607526,-0.006
 21402,-0.02816546,0.00010951,-0.00007228,-0.00005663,0.00008260,0.0000
 0493,0.00003351,-0.00003290,0.00005269,0.00000305,-0.00164633,-0.00554
 683,-0.00170130,0.00001042,-0.00005382,0.00033513,-0.00021170,0.000659
 72,-0.00066588,0.00041661,-0.00012819,-0.00001961,-0.02766837,0.012053
 98,0.02402221,-0.06605261,0.09630658,-0.00032773,0.00026495,-0.0001202
 3,-0.00026934,-0.00034156,0.00002988,-0.00426594,-0.00060339,-0.002469
 89,-0.02098839,0.00755965,0.01637060,0.18084878,-0.05636543,-0.2485383
 2,0.01065298,-0.00194300,-0.01169749,-0.00057218,0.00092133,0.00078981
 ,0.00008914,0.00000726,0.00003757,0.00005935,0.00011394,-0.00000692,-0
 .00087798,-0.00339688,-0.00030114,0.00012041,-0.00017097,0.00011844,-0
 .00000922,0.00029599,0.00204794,-0.00002582,0.00011937,-0.00022815,0.0
 2074146,-0.01276061,-0.01440098,-0.18585576,0.06532618,0.25687759,-0.0
 0912887,-0.00330842,0.00180850,0.00092155,0.00117558,-0.00121424,0.000
 65171,0.00013471,0.00009151,0.00069428,-0.00043816,0.00038437,-0.00381
 080,0.00287804,0.00108664,-0.45580887,-0.02270813,-0.01470956,-0.00006
 845,-0.00001861,-0.00010444,-0.00045262,0.00003682,0.00002001,0.000050
 54,-0.00002794,0.00001220,-0.00863698,-0.00051338,-0.00747820,0.000896
 29,-0.00058894,0.00013035,0.00000351,-0.00002008,-0.00003948,-0.000068
 50,-0.00000151,-0.00009407,0.00000145,-0.00009434,0.00009399,0.0017048
 3,0.00109179,0.00064681,0.47193059,0.03912886,0.00299053,-0.00033175,0
 .00039787,-0.00615446,0.00481541,0.00000300,-0.00094128,-0.00014423,0.
 00029098,-0.00608206,-0.00154421,-0.03791842,-0.00051844,-0.00315516,-
 0.02346204,-0.07344509,-0.00020922,-0.00005455,0.00029139,0.00005693,0
 .00194717,0.00014754,-0.00025998,0.00027414,0.00023897,0.00006824,-0.0
 0078434,0.00011124,-0.00047101,-0.00086134,0.00125627,-0.00079949,-0.0
 0027903,0.00000382,-0.00002350,-0.00150958,0.00055890,-0.00084793,0.00
 040152,-0.00017109,-0.00008469,-0.00004707,0.00270803,0.00099458,0.022
 83516,0.07677579,-0.02321015,-0.00194579,0.00031668,-0.00032690,0.0034
 7807,-0.00139597,0.00075563,0.00018222,-0.00022440,-0.00062696,-0.0040
 8741,-0.00073267,-0.02201587,-0.00217783,-0.00219791,-0.01717358,-0.00
 000953,-0.08100866,-0.00000705,-0.00002002,0.00011736,-0.00085907,-0.0
 0007581,0.00025428,-0.00027931,0.00003421,-0.00009497,0.04544745,0.002
 57872,0.00763630,0.00032094,-0.00131141,0.00101232,-0.00007044,0.00003
 957,0.00007224,-0.00082065,0.00023860,-0.00046743,-0.00013378,-0.00025
 513,-0.00023582,-0.00060836,0.00134197,0.00136602,0.01890401,0.0027879
 0,0.07480276,-0.11650362,-0.10928271,-0.05534434,-0.01364905,-0.037379
 21,-0.01736931,-0.00673140,0.00275271,-0.00085158,-0.00052651,0.000677
 15,0.00020131,-0.00123243,0.00275142,-0.00340048,0.00610704,0.01667610
 ,0.00916339,-0.00039497,-0.00196622,0.00020058,-0.00022740,0.00031449,
 0.00016911,0.00350295,-0.00076754,-0.00031795,0.00008292,-0.00047418,0
 .00008009,0.00629039,0.01510190,0.00772870,0.00015754,-0.00003712,-0.0
 0001576,0.00021319,-0.00013508,-0.00002147,0.00033935,0.00088289,0.000
 63338,0.00021755,0.00001366,0.00010549,0.00100440,-0.00037809,0.000792
 84,0.12140718,-0.10780385,-0.33929019,-0.14084736,0.00413900,0.0050909
 3,0.00225282,0.00128327,0.00002722,-0.00020671,0.00073082,0.00043285,0
 .00048306,0.00250582,-0.00272447,0.00464734,-0.01163940,-0.02439008,-0
 .01764338,0.00001407,0.00040996,-0.00001305,-0.00011061,-0.00012883,-0
 .00016181,0.00072143,0.00117133,0.00019241,-0.00054265,0.00190881,-0.0
 0051873,0.00040355,0.00467321,0.00648780,-0.00006021,0.00008964,0.0000
 0943,-0.00017085,0.00000978,0.00000098,-0.00034785,-0.00117427,-0.0008
 7947,-0.00016532,-0.00010396,-0.00007166,-0.00046335,0.00202576,-0.000
 71944,0.11148458,0.35188265,-0.05421063,-0.13905454,-0.15446814,0.0044
 3719,0.00322694,0.00202731,0.00150818,0.00030900,0.00058312,-0.0003234
 7,-0.00005494,-0.00042226,-0.00241422,0.00318269,-0.00266745,0.0082985
 1,0.02268744,0.01246056,0.00006519,0.00019409,0.00000799,0.00025996,0.
 00021347,-0.00003339,0.00028273,0.00082192,0.00109932,0.00051428,-0.00
 094178,0.00117254,-0.01775807,-0.03760890,-0.01185413,0.00009640,0.000
 00988,0.00021255,0.00001208,-0.00011850,0.00011763,0.00026975,0.000793
 58,0.00078346,0.00016772,0.00030752,0.00007968,0.00050779,-0.00087869,
 0.00064172,0.05836804,0.14694142,0.15021304,0.00058484,0.00004578,-0.0
 0012407,0.00005926,-0.00450032,0.01668667,-0.08697349,-0.01517925,0.04
 029781,-0.00286864,-0.00932298,0.02861661,0.00167749,-0.00116035,0.000
 10266,-0.00050128,-0.00011413,-0.00017419,0.01030756,0.01352631,-0.041
 54368,-0.00081340,-0.00186064,-0.00036558,0.00107280,0.00141170,-0.000
 31461,-0.00085344,-0.00018814,-0.00014067,0.00009169,0.00014532,-0.000
 08703,-0.00261165,0.00442208,0.00211904,0.00068456,-0.00049562,-0.0010
 8472,-0.00000123,0.00011538,-0.00011294,0.00028351,-0.00005887,-0.0000
 7207,0.00011597,0.00001576,-0.00008875,-0.00005713,0.00002156,-0.00008
 142,0.07980257,0.00104591,-0.00041468,-0.00008890,-0.00128915,-0.01392
 664,0.03869929,-0.01354629,-0.10861951,0.11085125,0.00365135,0.0110838
 0,-0.03294423,-0.00133579,0.00098105,0.00030428,0.00005077,-0.00033311
 ,0.00018127,-0.00130580,0.00058579,-0.00204875,-0.00426559,-0.00609485
 ,-0.00073678,0.00050269,0.00312814,0.00085262,-0.00011271,0.00025481,-
 0.00007857,-0.00013437,0.00008751,-0.00009302,0.00462553,-0.00432246,-
 0.00225891,-0.00077275,0.00144745,0.00080080,0.00004458,0.00003063,0.0
 0017683,-0.00013080,0.00000640,0.00005023,0.00003076,0.00020419,-0.000
 07887,-0.00023477,0.00008967,-0.00003060,0.01317642,0.11581181,0.00028
 792,-0.00036853,-0.00008422,-0.00199213,-0.00505820,0.00654969,0.03781
 075,0.11111534,-0.41535413,0.00051429,0.00701691,-0.01558192,-0.001333
 25,0.00044756,0.00112344,-0.00037297,-0.00008808,-0.00018554,0.0088967
 9,0.00467358,-0.01178005,-0.00047731,-0.00138970,0.00067506,-0.0001525
 5,-0.00066832,0.00161366,-0.00052675,-0.00003702,0.00027855,-0.0001194
 8,-0.00004502,0.00003186,0.00186327,-0.00250483,0.00005067,-0.00069016
 ,0.00042310,0.00101300,0.00034236,-0.00005519,0.00012057,-0.00024947,0
 .00002319,0.00004559,-0.00004617,0.00002682,0.00013815,-0.00012205,0.0
 0004635,0.00004645,-0.04363308,-0.11355794,0.43129916\\0.00005464,0.00
 002498,-0.00006229,-0.00004681,0.00006968,0.00000527,-0.00003532,-0.00
 003972,0.00004649,-0.00002319,0.00000548,-0.00006805,0.00005047,-0.000
 06818,-0.00000010,0.00000776,0.00001350,0.00008294,0.00001191,-0.00000
 190,-0.00001541,0.00001608,-0.00001431,0.00001939,0.00001555,-0.000029
 11,-0.00001257,-0.00000390,0.00000527,-0.00004778,-0.00001825,-0.00001
 855,0.00003924,-0.00000743,-0.00000947,0.00003999,-0.00000737,0.000006
 85,0.00001966,0.00000518,0.00002358,-0.00001563,-0.00002705,0.00002734
 ,0.00000650,-0.00000262,-0.00000125,-0.00000039,-0.00000165,-0.0000031
 7,0.00000179,0.00001200,0.00000898,-0.00003904\\\@


 Any fool can criticize, condemn, and complain -- and most do.
 -- Dale Carnegie
 Job cpu time:       0 days  0 hours  0 minutes  2.0 seconds.
 File lengths (MBytes):  RWF=      8 Int=      0 D2E=      0 Chk=      2 Scr=      1
 Normal termination of Gaussian 09 at Wed Feb 19 02:31:41 2025.
