 Entering Gaussian System, Link 0=g09
 Input=/home/mayank/Desktop/software/gaussian/Gview_and_Gaussian/g09/scratch/Q3/cyclohexane_chair.com
 Output=/home/mayank/Desktop/software/gaussian/Gview_and_Gaussian/g09/scratch/Q3/cyclohexane_chair.log
 Initial command:
 /home/mayank/Desktop/software/gaussian/Gview_and_Gaussian/g09/l1.exe "/home/mayank/Desktop/software/gaussian/Gview_and_Gaussian/g09/scratch/Gau-71260.inp" -scrdir="/home/mayank/Desktop/software/gaussian/Gview_and_Gaussian/g09/scratch/"
 Entering Link 1 = /home/mayank/Desktop/software/gaussian/Gview_and_Gaussian/g09/l1.exe PID=     71263.
  
 Copyright (c) 1988,1990,1992,1993,1995,1998,2003,2009,2013,
            Gaussian, Inc.  All Rights Reserved.
  
 This is part of the Gaussian(R) 09 program.  It is based on
 the Gaussian(R) 03 system (copyright 2003, Gaussian, Inc.),
 the Gaussian(R) 98 system (copyright 1998, Gaussian, Inc.),
 the Gaussian(R) 94 system (copyright 1995, Gaussian, Inc.),
 the Gaussian 92(TM) system (copyright 1992, Gaussian, Inc.),
 the Gaussian 90(TM) system (copyright 1990, Gaussian, Inc.),
 the Gaussian 88(TM) system (copyright 1988, Gaussian, Inc.),
 the Gaussian 86(TM) system (copyright 1986, Carnegie Mellon
 University), and the Gaussian 82(TM) system (copyright 1983,
 Carnegie Mellon University). Gaussian is a federally registered
 trademark of Gaussian, Inc.
  
 This software contains proprietary and confidential information,
 including trade secrets, belonging to Gaussian, Inc.
  
 This software is provided under written license and may be
 used, copied, transmitted, or stored only in accord with that
 written license.
  
 The following legend is applicable only to US Government
 contracts under FAR:
  
                    RESTRICTED RIGHTS LEGEND
  
 Use, reproduction and disclosure by the US Government is
 subject to restrictions as set forth in subparagraphs (a)
 and (c) of the Commercial Computer Software - Restricted
 Rights clause in FAR 52.227-19.
  
 Gaussian, Inc.
 340 Quinnipiac St., Bldg. 40, Wallingford CT 06492
  
  
 ---------------------------------------------------------------
 Warning -- This program may not be used in any manner that
 competes with the business of Gaussian, Inc. or will provide
 assistance to any competitor of Gaussian, Inc.  The licensee
 of this program is prohibited from giving any competitor of
 Gaussian, Inc. access to this program.  By using this program,
 the user acknowledges that Gaussian, Inc. is engaged in the
 business of creating and licensing software in the field of
 computational chemistry and represents and warrants to the
 licensee that it is not a competitor of Gaussian, Inc. and that
 it will not use this program in any manner prohibited above.
 ---------------------------------------------------------------
  

 Cite this work as:
 Gaussian 09, Revision D.01,
 M. J. Frisch, G. W. Trucks, H. B. Schlegel, G. E. Scuseria, 
 M. A. Robb, J. R. Cheeseman, G. Scalmani, V. Barone, B. Mennucci, 
 G. A. Petersson, H. Nakatsuji, M. Caricato, X. Li, H. P. Hratchian, 
 A. F. Izmaylov, J. Bloino, G. Zheng, J. L. Sonnenberg, M. Hada, 
 M. Ehara, K. Toyota, R. Fukuda, J. Hasegawa, M. Ishida, T. Nakajima, 
 Y. Honda, O. Kitao, H. Nakai, T. Vreven, J. A. Montgomery, Jr., 
 J. E. Peralta, F. Ogliaro, M. Bearpark, J. J. Heyd, E. Brothers, 
 K. N. Kudin, V. N. Staroverov, T. Keith, R. Kobayashi, J. Normand, 
 K. Raghavachari, A. Rendell, J. C. Burant, S. S. Iyengar, J. Tomasi, 
 M. Cossi, N. Rega, J. M. Millam, M. Klene, J. E. Knox, J. B. Cross, 
 V. Bakken, C. Adamo, J. Jaramillo, R. Gomperts, R. E. Stratmann, 
 O. Yazyev, A. J. Austin, R. Cammi, C. Pomelli, J. W. Ochterski, 
 R. L. Martin, K. Morokuma, V. G. Zakrzewski, G. A. Voth, 
 P. Salvador, J. J. Dannenberg, S. Dapprich, A. D. Daniels, 
 O. Farkas, J. B. Foresman, J. V. Ortiz, J. Cioslowski, 
 and D. J. Fox, Gaussian, Inc., Wallingford CT, 2013.
 
 ******************************************
 Gaussian 09:  AM64L-G09RevD.01 24-Apr-2013
                19-Feb-2025 
 ******************************************
 %chk=cyclohexane_chair.chk
 --------------------------------------
 # opt freq hf/sto-3g geom=connectivity
 --------------------------------------
 1/18=20,19=15,38=1,57=2/1,3;
 2/9=110,12=2,17=6,18=5,40=1/2;
 3/6=3,11=9,16=1,25=1,30=1,71=1/1,2,3;
 4//1;
 5/5=2,38=5/2;
 6/7=2,8=2,9=2,10=2,28=1/1;
 7//1,2,3,16;
 1/18=20,19=15/3(2);
 2/9=110/2;
 99//99;
 2/9=110/2;
 3/6=3,11=9,16=1,25=1,30=1,71=1/1,2,3;
 4/5=5,16=3,69=1/1;
 5/5=2,38=5/2;
 7//1,2,3,16;
 1/18=20,19=15/3(-5);
 2/9=110/2;
 6/7=2,8=2,9=2,10=2,19=2,28=1/1;
 99/9=1/99;
 -------------------
 Title Card Required
 -------------------
 Symbolic Z-matrix:
 Charge =  0 Multiplicity = 1
 C                    -4.31929   0.1655    0. 
 C                    -2.80418   0.1655    0. 
 C                    -2.25225   1.57658   0. 
 C                    -2.80192   2.38111   1.16066 
 C                    -4.31704   2.38177   1.16017 
 C                    -4.86984   0.97115   1.15888 
 H                    -1.13365   1.54259   0.06271 
 H                    -2.43163  -0.38014   0.90656 
 H                    -2.42889  -0.38436  -0.90191 
 H                    -4.69198   0.59853  -0.96539 
 H                    -4.69489  -0.88872   0.0635 
 H                    -2.42938   1.94627   2.12527 
 H                    -2.42589   3.43525   1.09867 
 H                    -4.69236   2.9312    2.06229 
 H                    -4.6889    2.92838   0.25385 
 H                    -4.60384   0.46543   2.12419 
 H                    -5.98839   1.00621   1.09394 
 H                    -2.52087   2.08221  -0.96455 
 

 GradGradGradGradGradGradGradGradGradGradGradGradGradGradGradGradGradGrad
 Berny optimization.
 Initialization pass.
                           ----------------------------
                           !    Initial Parameters    !
                           ! (Angstroms and Degrees)  !
 --------------------------                            --------------------------
 ! Name  Definition              Value          Derivative Info.                !
 --------------------------------------------------------------------------------
 ! R1    R(1,2)                  1.5151         estimate D2E/DX2                !
 ! R2    R(1,6)                  1.515          estimate D2E/DX2                !
 ! R3    R(1,10)                 1.1218         estimate D2E/DX2                !
 ! R4    R(1,11)                 1.1209         estimate D2E/DX2                !
 ! R5    R(2,3)                  1.5152         estimate D2E/DX2                !
 ! R6    R(2,8)                  1.1218         estimate D2E/DX2                !
 ! R7    R(2,9)                  1.121          estimate D2E/DX2                !
 ! R8    R(3,4)                  1.5154         estimate D2E/DX2                !
 ! R9    R(3,7)                  1.1209         estimate D2E/DX2                !
 ! R10   R(3,18)                 1.1217         estimate D2E/DX2                !
 ! R11   R(4,5)                  1.5151         estimate D2E/DX2                !
 ! R12   R(4,12)                 1.1218         estimate D2E/DX2                !
 ! R13   R(4,13)                 1.1209         estimate D2E/DX2                !
 ! R14   R(5,6)                  1.5151         estimate D2E/DX2                !
 ! R15   R(5,14)                 1.121          estimate D2E/DX2                !
 ! R16   R(5,15)                 1.1218         estimate D2E/DX2                !
 ! R17   R(6,16)                 1.1218         estimate D2E/DX2                !
 ! R18   R(6,17)                 1.121          estimate D2E/DX2                !
 ! A1    A(2,1,6)              111.3094         estimate D2E/DX2                !
 ! A2    A(2,1,10)             109.4042         estimate D2E/DX2                !
 ! A3    A(2,1,11)             109.5772         estimate D2E/DX2                !
 ! A4    A(6,1,10)             109.4074         estimate D2E/DX2                !
 ! A5    A(6,1,11)             109.5749         estimate D2E/DX2                !
 ! A6    A(10,1,11)            107.4863         estimate D2E/DX2                !
 ! A7    A(1,2,3)              111.3625         estimate D2E/DX2                !
 ! A8    A(1,2,8)              109.3968         estimate D2E/DX2                !
 ! A9    A(1,2,9)              109.5595         estimate D2E/DX2                !
 ! A10   A(3,2,8)              109.3908         estimate D2E/DX2                !
 ! A11   A(3,2,9)              109.5638         estimate D2E/DX2                !
 ! A12   A(8,2,9)              107.4839         estimate D2E/DX2                !
 ! A13   A(2,3,4)              111.2413         estimate D2E/DX2                !
 ! A14   A(2,3,7)              109.59           estimate D2E/DX2                !
 ! A15   A(2,3,18)             109.4252         estimate D2E/DX2                !
 ! A16   A(4,3,7)              109.586          estimate D2E/DX2                !
 ! A17   A(4,3,18)             109.4158         estimate D2E/DX2                !
 ! A18   A(7,3,18)             107.5042         estimate D2E/DX2                !
 ! A19   A(3,4,5)              111.2657         estimate D2E/DX2                !
 ! A20   A(3,4,12)             109.4111         estimate D2E/DX2                !
 ! A21   A(3,4,13)             109.5868         estimate D2E/DX2                !
 ! A22   A(5,4,12)             109.4233         estimate D2E/DX2                !
 ! A23   A(5,4,13)             109.5746         estimate D2E/DX2                !
 ! A24   A(12,4,13)            107.5            estimate D2E/DX2                !
 ! A25   A(4,5,6)              111.3744         estimate D2E/DX2                !
 ! A26   A(4,5,14)             109.5589         estimate D2E/DX2                !
 ! A27   A(4,5,15)             109.3871         estimate D2E/DX2                !
 ! A28   A(6,5,14)             109.5649         estimate D2E/DX2                !
 ! A29   A(6,5,15)             109.3914         estimate D2E/DX2                !
 ! A30   A(14,5,15)            107.4801         estimate D2E/DX2                !
 ! A31   A(1,6,5)              111.2962         estimate D2E/DX2                !
 ! A32   A(1,6,16)             109.4108         estimate D2E/DX2                !
 ! A33   A(1,6,17)             109.5686         estimate D2E/DX2                !
 ! A34   A(5,6,16)             109.42           estimate D2E/DX2                !
 ! A35   A(5,6,17)             109.5728         estimate D2E/DX2                !
 ! A36   A(16,6,17)            107.4917         estimate D2E/DX2                !
 ! D1    D(6,1,2,3)            -55.1928         estimate D2E/DX2                !
 ! D2    D(6,1,2,8)             65.8497         estimate D2E/DX2                !
 ! D3    D(6,1,2,9)           -176.5618         estimate D2E/DX2                !
 ! D4    D(10,1,2,3)            65.8411         estimate D2E/DX2                !
 ! D5    D(10,1,2,8)          -173.1163         estimate D2E/DX2                !
 ! D6    D(10,1,2,9)           -55.5279         estimate D2E/DX2                !
 ! D7    D(11,1,2,3)          -176.5529         estimate D2E/DX2                !
 ! D8    D(11,1,2,8)           -55.5104         estimate D2E/DX2                !
 ! D9    D(11,1,2,9)            62.0781         estimate D2E/DX2                !
 ! D10   D(2,1,6,5)             55.0823         estimate D2E/DX2                !
 ! D11   D(2,1,6,16)           -65.9633         estimate D2E/DX2                !
 ! D12   D(2,1,6,17)           176.4253         estimate D2E/DX2                !
 ! D13   D(10,1,6,5)           -65.9498         estimate D2E/DX2                !
 ! D14   D(10,1,6,16)          173.0046         estimate D2E/DX2                !
 ! D15   D(10,1,6,17)           55.3933         estimate D2E/DX2                !
 ! D16   D(11,1,6,5)           176.4437         estimate D2E/DX2                !
 ! D17   D(11,1,6,16)           55.3981         estimate D2E/DX2                !
 ! D18   D(11,1,6,17)          -62.2133         estimate D2E/DX2                !
 ! D19   D(1,2,3,4)             55.2571         estimate D2E/DX2                !
 ! D20   D(1,2,3,7)            176.5953         estimate D2E/DX2                !
 ! D21   D(1,2,3,18)           -65.7573         estimate D2E/DX2                !
 ! D22   D(8,2,3,4)            -65.7889         estimate D2E/DX2                !
 ! D23   D(8,2,3,7)             55.5492         estimate D2E/DX2                !
 ! D24   D(8,2,3,18)           173.1966         estimate D2E/DX2                !
 ! D25   D(9,2,3,4)            176.6237         estimate D2E/DX2                !
 ! D26   D(9,2,3,7)            -62.0382         estimate D2E/DX2                !
 ! D27   D(9,2,3,18)            55.6092         estimate D2E/DX2                !
 ! D28   D(2,3,4,5)            -55.2366         estimate D2E/DX2                !
 ! D29   D(2,3,4,12)            65.7936         estimate D2E/DX2                !
 ! D30   D(2,3,4,13)          -176.5742         estimate D2E/DX2                !
 ! D31   D(7,3,4,5)           -176.5771         estimate D2E/DX2                !
 ! D32   D(7,3,4,12)           -55.5468         estimate D2E/DX2                !
 ! D33   D(7,3,4,13)            62.0853         estimate D2E/DX2                !
 ! D34   D(18,3,4,5)            65.7833         estimate D2E/DX2                !
 ! D35   D(18,3,4,12)         -173.1864         estimate D2E/DX2                !
 ! D36   D(18,3,4,13)          -55.5543         estimate D2E/DX2                !
 ! D37   D(3,4,5,6)             55.2381         estimate D2E/DX2                !
 ! D38   D(3,4,5,14)           176.6158         estimate D2E/DX2                !
 ! D39   D(3,4,5,15)           -65.8064         estimate D2E/DX2                !
 ! D40   D(12,4,5,6)           -65.785          estimate D2E/DX2                !
 ! D41   D(12,4,5,14)           55.5927         estimate D2E/DX2                !
 ! D42   D(12,4,5,15)          173.1705         estimate D2E/DX2                !
 ! D43   D(13,4,5,6)           176.5828         estimate D2E/DX2                !
 ! D44   D(13,4,5,14)          -62.0395         estimate D2E/DX2                !
 ! D45   D(13,4,5,15)           55.5383         estimate D2E/DX2                !
 ! D46   D(4,5,6,1)            -55.1527         estimate D2E/DX2                !
 ! D47   D(4,5,6,16)            65.8876         estimate D2E/DX2                !
 ! D48   D(4,5,6,17)          -176.4932         estimate D2E/DX2                !
 ! D49   D(14,5,6,1)          -176.5268         estimate D2E/DX2                !
 ! D50   D(14,5,6,16)          -55.4866         estimate D2E/DX2                !
 ! D51   D(14,5,6,17)           62.1326         estimate D2E/DX2                !
 ! D52   D(15,5,6,1)            65.8893         estimate D2E/DX2                !
 ! D53   D(15,5,6,16)         -173.0704         estimate D2E/DX2                !
 ! D54   D(15,5,6,17)          -55.4512         estimate D2E/DX2                !
 --------------------------------------------------------------------------------
 Trust Radius=3.00D-01 FncErr=1.00D-07 GrdErr=1.00D-07
 Number of steps in this run=    108 maximum allowed number of steps=    108.
 GradGradGradGradGradGradGradGradGradGradGradGradGradGradGradGradGradGrad

                          Input orientation:                          
 ---------------------------------------------------------------------
 Center     Atomic      Atomic             Coordinates (Angstroms)
 Number     Number       Type             X           Y           Z
 ---------------------------------------------------------------------
      1          6           0       -4.319289    0.165499    0.000000
      2          6           0       -2.804183    0.165499    0.000000
      3          6           0       -2.252252    1.576577    0.000000
      4          6           0       -2.801915    2.381114    1.160661
      5          6           0       -4.317040    2.381775    1.160172
      6          6           0       -4.869840    0.971154    1.158876
      7          1           0       -1.133653    1.542586    0.062714
      8          1           0       -2.431634   -0.380135    0.906562
      9          1           0       -2.428889   -0.384360   -0.901910
     10          1           0       -4.691977    0.598528   -0.965385
     11          1           0       -4.694886   -0.888721    0.063502
     12          1           0       -2.429380    1.946269    2.125272
     13          1           0       -2.425892    3.435251    1.098666
     14          1           0       -4.692360    2.931203    2.062286
     15          1           0       -4.688895    2.928376    0.253849
     16          1           0       -4.603836    0.465432    2.124191
     17          1           0       -5.988388    1.006215    1.093938
     18          1           0       -2.520870    2.082210   -0.964546
 ---------------------------------------------------------------------
                    Distance matrix (angstroms):
                    1          2          3          4          5
     1  C    0.000000
     2  C    1.515106   0.000000
     3  C    2.502755   1.515180   0.000000
     4  C    2.925493   2.501217   1.515435   0.000000
     5  C    2.501576   2.923459   2.501538   1.515125   0.000000
     6  C    1.514985   2.501802   2.925970   2.502859   1.515071
     7  H    3.471106   2.165865   1.120871   2.166037   3.470246
     8  H    2.163981   1.121768   2.163967   2.797529   3.353688
     9  H    2.165502   1.120996   2.165621   3.470042   3.933039
    10  H    1.121775   2.164081   2.800144   3.357085   2.799739
    11  H    1.120931   2.165680   3.471050   3.934326   3.470100
    12  H    3.355545   2.797928   2.164446   1.121761   2.164334
    13  H    3.934882   3.470079   2.166076   1.120911   2.165649
    14  H    3.470061   3.932856   3.470182   2.165481   1.120958
    15  H    2.799024   3.354112   2.798040   2.163908   1.121816
    16  H    2.164050   2.800160   3.358091   2.800919   2.164245
    17  H    2.165501   3.470254   3.934555   3.471082   2.165631
    18  H    2.799722   2.164347   1.121681   2.164448   2.798284
                    6          7          8          9         10
     6  C    0.000000
     7  H    3.935378   0.000000
     8  H    2.799016   2.468540   0.000000
     9  H    3.470230   2.514211   1.808479   0.000000
    10  H    2.164017   3.822290   3.093722   2.468130   0.000000
    11  H    2.165546   4.312034   2.468141   2.514188   1.808460
    12  H    2.800110   2.469011   2.626293   3.820427   4.060531
    13  H    3.471063   2.515007   3.820223   4.311814   4.176415
    14  H    2.165512   4.311721   4.172714   4.990262   3.822063
    15  H    2.163916   3.820562   4.058018   4.173443   2.629588
    16  H    1.121760   4.177573   2.629841   3.822280   3.093697
    17  H    1.120980   4.991950   3.821986   4.311281   2.467327
    18  H    3.355745   1.808543   3.093889   2.469079   2.629642
                   11         12         13         14         15
    11  H    0.000000
    12  H    4.173797   0.000000
    13  H    4.991656   1.808590   0.000000
    14  H    4.311260   2.468834   2.513863   0.000000
    15  H    3.821845   3.093892   2.468161   1.808443   0.000000
    16  H    2.467480   2.630806   3.822953   2.468136   3.093785
    17  H    2.515100   3.822812   4.311800   2.514551   2.467617
    18  H    3.822258   3.094160   2.469126   3.820716   2.626940
                   16         17         18
    16  H    0.000000
    17  H    1.808550   0.000000
    18  H    4.061159   4.173584   0.000000
 Stoichiometry    C6H12
 Framework group  C1[X(C6H12)]
 Deg. of freedom    48
 Full point group                 C1      NOp   1
 Largest Abelian subgroup         C1      NOp   1
 Largest concise Abelian subgroup C1      NOp   1
                         Standard orientation:                         
 ---------------------------------------------------------------------
 Center     Atomic      Atomic             Coordinates (Angstroms)
 Number     Number       Type             X           Y           Z
 ---------------------------------------------------------------------
      1          6           0       -1.186514   -0.824435   -0.228101
      2          6           0        0.120979   -1.438637    0.228806
      3          6           0        1.307472   -0.615112   -0.229246
      4          6           0        1.186509    0.824267    0.229118
      5          6           0       -0.120646    1.438706   -0.228500
      6          6           0       -1.307601    0.615182    0.227993
      7          1           0        2.252898   -1.060333    0.176094
      8          1           0        0.127604   -1.510786    1.348232
      9          1           0        0.208155   -2.480218   -0.176337
     10          1           0       -1.247321   -0.867195   -1.347410
     11          1           0       -2.044050   -1.420700    0.178821
     12          1           0        1.246304    0.865329    1.348531
     13          1           0        2.044304    1.421102   -0.176367
     14          1           0       -0.208071    2.480087    0.176998
     15          1           0       -0.126197    1.511420   -1.347943
     16          1           0       -1.375443    0.647202    1.347241
     17          1           0       -2.252347    1.059989   -0.179683
     18          1           0        1.372978   -0.645729   -1.348594
 ---------------------------------------------------------------------
 Rotational constants (GHZ):      4.3680740      4.3634363      2.5063860
 Standard basis: STO-3G (5D, 7F)
 There are    42 symmetry adapted cartesian basis functions of A   symmetry.
 There are    42 symmetry adapted basis functions of A   symmetry.
    42 basis functions,   126 primitive gaussians,    42 cartesian basis functions
    24 alpha electrons       24 beta electrons
       nuclear repulsion energy       256.6415372268 Hartrees.
 NAtoms=   18 NActive=   18 NUniq=   18 SFac= 1.00D+00 NAtFMM=   60 NAOKFM=F Big=F
 Integral buffers will be    131072 words long.
 Raffenetti 1 integral format.
 Two-electron integral symmetry is turned on.
 One-electron integrals computed using PRISM.
 NBasis=    42 RedAO= T EigKep=  1.94D-01  NBF=    42
 NBsUse=    42 1.00D-06 EigRej= -1.00D+00 NBFU=    42
 ExpMin= 1.69D-01 ExpMax= 7.16D+01 ExpMxC= 7.16D+01 IAcc=1 IRadAn=         1 AccDes= 0.00D+00
 Harris functional with IExCor=  205 and IRadAn=       1 diagonalized for initial guess.
 HarFok:  IExCor=  205 AccDes= 0.00D+00 IRadAn=         1 IDoV= 1 UseB2=F ITyADJ=14
 ICtDFT=  3500011 ScaDFX=  1.000000  1.000000  1.000000  1.000000
 FoFCou: FMM=F IPFlag=           0 FMFlag=      100000 FMFlg1=           0
         NFxFlg=           0 DoJE=T BraDBF=F KetDBF=T FulRan=T
         wScrn=  0.000000 ICntrl=     500 IOpCl=  0 I1Cent=   200000004 NGrid=           0
         NMat0=    1 NMatS0=      1 NMatT0=    0 NMatD0=    1 NMtDS0=    0 NMtDT0=    0
 Petite list used in FoFCou.
 Keep R1 ints in memory in canonical form, NReq=1270635.
 Requested convergence on RMS density matrix=1.00D-08 within 128 cycles.
 Requested convergence on MAX density matrix=1.00D-06.
 Requested convergence on             energy=1.00D-06.
 No special actions if energy rises.
 SCF Done:  E(RHF) =  -231.468245974     A.U. after    8 cycles
            NFock=  8  Conv=0.49D-08     -V/T= 2.0096

 **********************************************************************

            Population analysis using the SCF density.

 **********************************************************************

 Orbital symmetries:
       Occupied  (A) (A) (A) (A) (A) (A) (A) (A) (A) (A) (A) (A)
                 (A) (A) (A) (A) (A) (A) (A) (A) (A) (A) (A) (A)
       Virtual   (A) (A) (A) (A) (A) (A) (A) (A) (A) (A) (A) (A)
                 (A) (A) (A) (A) (A) (A)
 The electronic state is 1-A.
 Alpha  occ. eigenvalues --  -11.03658 -11.03657 -11.03655 -11.03634 -11.03632
 Alpha  occ. eigenvalues --  -11.03607  -1.07781  -0.96035  -0.96026  -0.78240
 Alpha  occ. eigenvalues --   -0.78230  -0.70558  -0.61331  -0.56651  -0.56238
 Alpha  occ. eigenvalues --   -0.56226  -0.48389  -0.48370  -0.47917  -0.44129
 Alpha  occ. eigenvalues --   -0.44114  -0.40568  -0.38038  -0.38014
 Alpha virt. eigenvalues --    0.55251   0.60277   0.60405   0.60426   0.64721
 Alpha virt. eigenvalues --    0.64728   0.70561   0.70579   0.72082   0.72091
 Alpha virt. eigenvalues --    0.75277   0.76807   0.77084   0.77094   0.79554
 Alpha virt. eigenvalues --    0.82126   0.83423   0.83452
          Condensed to atoms (all electrons):
               1          2          3          4          5          6
     1  C    4.744815   0.366020  -0.024199  -0.004351  -0.024281   0.365998
     2  C    0.366020   4.744895   0.366002  -0.024303  -0.004385  -0.024267
     3  C   -0.024199   0.366002   4.744847   0.365915  -0.024283  -0.004343
     4  C   -0.004351  -0.024303   0.365915   4.744865   0.366013  -0.024194
     5  C   -0.024281  -0.004385  -0.024283   0.366013   4.744887   0.366022
     6  C    0.365998  -0.024267  -0.004343  -0.024194   0.366022   4.744786
     7  H    0.001301  -0.021654   0.378029  -0.021654   0.001304   0.000007
     8  H   -0.022785   0.376701  -0.022784  -0.001862   0.000058  -0.001847
     9  H   -0.021686   0.377973  -0.021682   0.001306   0.000008   0.001305
    10  H    0.376704  -0.022777  -0.001844   0.000057  -0.001839  -0.022776
    11  H    0.378020  -0.021665   0.001302   0.000007   0.001305  -0.021679
    12  H    0.000058  -0.001858  -0.022753   0.376710  -0.022762  -0.001843
    13  H    0.000008   0.001304  -0.021654   0.378015  -0.021668   0.001302
    14  H    0.001305   0.000008   0.001305  -0.021688   0.377983  -0.021686
    15  H   -0.001845   0.000058  -0.001859  -0.022787   0.376694  -0.022788
    16  H   -0.022775  -0.001838   0.000057  -0.001837  -0.022767   0.376710
    17  H   -0.021679   0.001305   0.000007   0.001302  -0.021667   0.378013
    18  H   -0.001847  -0.022759   0.376727  -0.022749  -0.001855   0.000058
               7          8          9         10         11         12
     1  C    0.001301  -0.022785  -0.021686   0.376704   0.378020   0.000058
     2  C   -0.021654   0.376701   0.377973  -0.022777  -0.021665  -0.001858
     3  C    0.378029  -0.022784  -0.021682  -0.001844   0.001302  -0.022753
     4  C   -0.021654  -0.001862   0.001306   0.000057   0.000007   0.376710
     5  C    0.001304   0.000058   0.000008  -0.001839   0.001305  -0.022762
     6  C    0.000007  -0.001847   0.001305  -0.022776  -0.021679  -0.001843
     7  H    0.647431  -0.002730  -0.001881   0.000004  -0.000033  -0.002725
     8  H   -0.002730   0.651942  -0.021326   0.001865  -0.002737   0.000345
     9  H   -0.001881  -0.021326   0.647627  -0.002737  -0.001878   0.000005
    10  H    0.000004   0.001865  -0.002737   0.651912  -0.021333   0.000004
    11  H   -0.000033  -0.002737  -0.001878  -0.021333   0.647499  -0.000009
    12  H   -0.002725   0.000345   0.000005   0.000004  -0.000009   0.651842
    13  H   -0.001871   0.000005  -0.000033  -0.000009   0.000002  -0.021333
    14  H   -0.000033  -0.000009   0.000002   0.000004  -0.000033  -0.002727
    15  H    0.000005   0.000004  -0.000009   0.000346   0.000004   0.001865
    16  H   -0.000008   0.000346   0.000004   0.001865  -0.002750   0.000347
    17  H    0.000002   0.000004  -0.000033  -0.002752  -0.001863   0.000004
    18  H   -0.021337   0.001864  -0.002724   0.000347   0.000004   0.001862
              13         14         15         16         17         18
     1  C    0.000008   0.001305  -0.001845  -0.022775  -0.021679  -0.001847
     2  C    0.001304   0.000008   0.000058  -0.001838   0.001305  -0.022759
     3  C   -0.021654   0.001305  -0.001859   0.000057   0.000007   0.376727
     4  C    0.378015  -0.021688  -0.022787  -0.001837   0.001302  -0.022749
     5  C   -0.021668   0.377983   0.376694  -0.022767  -0.021667  -0.001855
     6  C    0.001302  -0.021686  -0.022788   0.376710   0.378013   0.000058
     7  H   -0.001871  -0.000033   0.000005  -0.000008   0.000002  -0.021337
     8  H    0.000005  -0.000009   0.000004   0.000346   0.000004   0.001864
     9  H   -0.000033   0.000002  -0.000009   0.000004  -0.000033  -0.002724
    10  H   -0.000009   0.000004   0.000346   0.001865  -0.002752   0.000347
    11  H    0.000002  -0.000033   0.000004  -0.002750  -0.001863   0.000004
    12  H   -0.021333  -0.002727   0.001865   0.000347   0.000004   0.001862
    13  H    0.647483  -0.001882  -0.002735   0.000004  -0.000033  -0.002724
    14  H   -0.001882   0.647612  -0.021326  -0.002740  -0.001873   0.000005
    15  H   -0.002735  -0.021326   0.651972   0.001865  -0.002745   0.000346
    16  H    0.000004  -0.002740   0.001865   0.651871  -0.021331   0.000004
    17  H   -0.000033  -0.001873  -0.002745  -0.021331   0.647509  -0.000009
    18  H   -0.002724   0.000005   0.000346   0.000004  -0.000009   0.651795
 Mulliken charges:
               1
     1  C   -0.088781
     2  C   -0.088761
     3  C   -0.088791
     4  C   -0.088763
     5  C   -0.088766
     6  C   -0.088777
     7  H    0.045843
     8  H    0.042945
     9  H    0.045759
    10  H    0.042958
    11  H    0.045836
    12  H    0.042968
    13  H    0.045819
    14  H    0.045773
    15  H    0.042937
    16  H    0.042972
    17  H    0.045837
    18  H    0.042992
 Sum of Mulliken charges =   0.00000
 Mulliken charges with hydrogens summed into heavy atoms:
               1
     1  C    0.000014
     2  C   -0.000057
     3  C    0.000044
     4  C    0.000024
     5  C   -0.000057
     6  C    0.000032
 Electronic spatial extent (au):  <R**2>=            581.8137
 Charge=              0.0000 electrons
 Dipole moment (field-independent basis, Debye):
    X=             -0.0003    Y=              0.0001    Z=             -0.0001  Tot=              0.0003
 Quadrupole moment (field-independent basis, Debye-Ang):
   XX=            -38.5386   YY=            -38.5438   ZZ=            -37.3850
   XY=              0.0003   XZ=             -0.0001   YZ=              0.0000
 Traceless Quadrupole moment (field-independent basis, Debye-Ang):
   XX=             -0.3828   YY=             -0.3880   ZZ=              0.7708
   XY=              0.0003   XZ=             -0.0001   YZ=              0.0000
 Octapole moment (field-independent basis, Debye-Ang**2):
  XXX=              0.0010  YYY=              0.0005  ZZZ=              0.0002  XYY=              0.0018
  XXY=             -0.0010  XXZ=             -0.0001  XZZ=             -0.0035  YZZ=              0.0006
  YYZ=             -0.0003  XYZ=              0.0004
 Hexadecapole moment (field-independent basis, Debye-Ang**3):
 XXXX=           -328.3251 YYYY=           -328.0087 ZZZZ=            -85.1653 XXXY=             -0.0027
 XXXZ=              0.6293 YYYX=              0.0059 YYYZ=              2.4387 ZZZX=             -0.0015
 ZZZY=              0.0044 XXYY=           -109.3811 XXZZ=            -70.5455 YYZZ=            -70.5018
 XXYZ=             -2.4464 YYXZ=             -0.6267 ZZXY=             -0.0002
 N-N= 2.566415372268D+02 E-N=-1.050914257026D+03  KE= 2.292686332986D+02
 Calling FoFJK, ICntrl=      2127 FMM=F ISym2X=0 I1Cent= 0 IOpClX= 0 NMat=1 NMatS=1 NMatT=0.
 ***** Axes restored to original set *****
 -------------------------------------------------------------------
 Center     Atomic                   Forces (Hartrees/Bohr)
 Number     Number              X              Y              Z
 -------------------------------------------------------------------
      1        6          -0.031101563   -0.029176789   -0.035275325
      2        6           0.031310572   -0.045743262   -0.004077801
      3        6           0.038247564    0.018431113   -0.034796789
      4        6           0.031193167    0.028957143    0.034917631
      5        6          -0.031204257    0.045859380    0.004031228
      6        6          -0.038573857   -0.018354470    0.035157494
      7        1          -0.026792801    0.001896749   -0.003636322
      8        1          -0.008608969    0.012620090   -0.022702791
      9        1          -0.007978965    0.011668089    0.023212659
     10        1           0.008625536   -0.011428584    0.023325181
     11        1           0.007996534    0.025680513   -0.003661443
     12        1          -0.008614348    0.011478056   -0.023304917
     13        1          -0.007990748   -0.025672884    0.003622035
     14        1           0.007948708   -0.011661369   -0.023192032
     15        1           0.008613059   -0.012656603    0.022722247
     16        1          -0.007454940    0.012229245   -0.023312518
     17        1           0.026859829   -0.001938586    0.003717470
     18        1           0.007525479   -0.012187831    0.023253994
 -------------------------------------------------------------------
 Cartesian Forces:  Max     0.045859380 RMS     0.022470099

 GradGradGradGradGradGradGradGradGradGradGradGradGradGradGradGradGradGrad
 Berny optimization.
 FormGI is forming the generalized inverse of G from B-inverse, IUseBI=4.
 Internal  Forces:  Max     0.027379381 RMS     0.010717125
 Search for a local minimum.
 Step number   1 out of a maximum of  108
 All quantities printed in internal units (Hartrees-Bohrs-Radians)
 Mixed Optimization -- RFO/linear search
 Second derivative matrix not updated -- first step.
 ITU=  0
     Eigenvalues ---    0.00748   0.00749   0.00841   0.02108   0.02111
     Eigenvalues ---    0.03845   0.04154   0.04159   0.04456   0.04956
     Eigenvalues ---    0.04958   0.05033   0.05655   0.05658   0.06098
     Eigenvalues ---    0.06157   0.08149   0.08160   0.08177   0.08181
     Eigenvalues ---    0.08187   0.08190   0.08197   0.08200   0.12069
     Eigenvalues ---    0.12098   0.12106   0.16075   0.16086   0.21913
     Eigenvalues ---    0.29134   0.29311   0.29312   0.30833   0.30841
     Eigenvalues ---    0.30842   0.31380   0.31384   0.31385   0.31386
     Eigenvalues ---    0.31386   0.31394   0.31463   0.31465   0.31467
     Eigenvalues ---    0.31470   0.31472   0.31476
 RFO step:  Lambda=-3.59074885D-02 EMin= 7.48208292D-03
 Linear search not attempted -- first point.
 Maximum step size (   0.300) exceeded in Quadratic search.
    -- Step size scaled by   0.934
 Iteration  1 RMS(Cart)=  0.02937181 RMS(Int)=  0.00019969
 Iteration  2 RMS(Cart)=  0.00015429 RMS(Int)=  0.00001758
 Iteration  3 RMS(Cart)=  0.00000002 RMS(Int)=  0.00001758
 Variable       Old X    -DE/DX   Delta X   Delta X   Delta X     New X
                                 (Linear)    (Quad)   (Total)
    R1        2.86314   0.02416   0.00000   0.06553   0.06553   2.92866
    R2        2.86291   0.02433   0.00000   0.06600   0.06600   2.92891
    R3        2.11985  -0.02735   0.00000  -0.07304  -0.07304   2.04680
    R4        2.11825  -0.02704   0.00000  -0.07204  -0.07204   2.04621
    R5        2.86327   0.02409   0.00000   0.06536   0.06536   2.92864
    R6        2.11983  -0.02734   0.00000  -0.07303  -0.07303   2.04681
    R7        2.11838  -0.02707   0.00000  -0.07213  -0.07213   2.04624
    R8        2.86376   0.02395   0.00000   0.06502   0.06501   2.92877
    R9        2.11814  -0.02700   0.00000  -0.07192  -0.07192   2.04622
   R10        2.11967  -0.02729   0.00000  -0.07287  -0.07287   2.04680
   R11        2.86317   0.02413   0.00000   0.06547   0.06547   2.92864
   R12        2.11982  -0.02735   0.00000  -0.07304  -0.07304   2.04678
   R13        2.11821  -0.02702   0.00000  -0.07199  -0.07199   2.04622
   R14        2.86307   0.02420   0.00000   0.06563   0.06563   2.92870
   R15        2.11830  -0.02704   0.00000  -0.07205  -0.07205   2.04625
   R16        2.11992  -0.02738   0.00000  -0.07313  -0.07313   2.04679
   R17        2.11982  -0.02734   0.00000  -0.07302  -0.07302   2.04680
   R18        2.11834  -0.02708   0.00000  -0.07215  -0.07215   2.04619
    A1        1.94271   0.00031   0.00000   0.00373   0.00371   1.94643
    A2        1.90946  -0.00013   0.00000  -0.00235  -0.00234   1.90712
    A3        1.91248   0.00039   0.00000   0.00500   0.00496   1.91744
    A4        1.90952  -0.00022   0.00000  -0.00258  -0.00257   1.90695
    A5        1.91244   0.00051   0.00000   0.00548   0.00543   1.91788
    A6        1.87599  -0.00089   0.00000  -0.00979  -0.00977   1.86622
    A7        1.94364   0.00015   0.00000   0.00275   0.00273   1.94637
    A8        1.90933  -0.00015   0.00000  -0.00238  -0.00237   1.90696
    A9        1.91217   0.00051   0.00000   0.00566   0.00563   1.91780
   A10        1.90923  -0.00017   0.00000  -0.00244  -0.00243   1.90680
   A11        1.91225   0.00054   0.00000   0.00578   0.00574   1.91799
   A12        1.87595  -0.00093   0.00000  -0.00985  -0.00984   1.86611
   A13        1.94153   0.00046   0.00000   0.00435   0.00433   1.94586
   A14        1.91271   0.00036   0.00000   0.00496   0.00492   1.91762
   A15        1.90983  -0.00019   0.00000  -0.00261  -0.00261   1.90722
   A16        1.91264   0.00045   0.00000   0.00538   0.00533   1.91797
   A17        1.90967  -0.00025   0.00000  -0.00276  -0.00276   1.90691
   A18        1.87630  -0.00087   0.00000  -0.00983  -0.00981   1.86649
   A19        1.94195   0.00040   0.00000   0.00407   0.00404   1.94599
   A20        1.90958  -0.00025   0.00000  -0.00276  -0.00275   1.90684
   A21        1.91265   0.00047   0.00000   0.00544   0.00539   1.91804
   A22        1.90980  -0.00018   0.00000  -0.00257  -0.00256   1.90723
   A23        1.91244   0.00039   0.00000   0.00516   0.00511   1.91755
   A24        1.87623  -0.00088   0.00000  -0.00984  -0.00982   1.86641
   A25        1.94385   0.00013   0.00000   0.00270   0.00267   1.94652
   A26        1.91216   0.00053   0.00000   0.00573   0.00569   1.91786
   A27        1.90917  -0.00015   0.00000  -0.00234  -0.00233   1.90683
   A28        1.91227   0.00052   0.00000   0.00564   0.00561   1.91787
   A29        1.90924  -0.00016   0.00000  -0.00238  -0.00237   1.90687
   A30        1.87588  -0.00093   0.00000  -0.00983  -0.00982   1.86607
   A31        1.94248   0.00034   0.00000   0.00391   0.00389   1.94638
   A32        1.90958  -0.00021   0.00000  -0.00254  -0.00253   1.90705
   A33        1.91233   0.00049   0.00000   0.00545   0.00541   1.91774
   A34        1.90974  -0.00016   0.00000  -0.00252  -0.00251   1.90723
   A35        1.91241   0.00039   0.00000   0.00502   0.00498   1.91738
   A36        1.87608  -0.00089   0.00000  -0.00983  -0.00982   1.86627
    D1       -0.96330   0.00089   0.00000   0.01027   0.01029  -0.95301
    D2        1.14929   0.00067   0.00000   0.00740   0.00741   1.15671
    D3       -3.08159  -0.00024   0.00000  -0.00262  -0.00262  -3.08421
    D4        1.14914   0.00073   0.00000   0.00789   0.00790   1.15704
    D5       -3.02145   0.00051   0.00000   0.00502   0.00502  -3.01643
    D6       -0.96914  -0.00040   0.00000  -0.00500  -0.00501  -0.97416
    D7       -3.08143  -0.00021   0.00000  -0.00242  -0.00242  -3.08385
    D8       -0.96884  -0.00042   0.00000  -0.00529  -0.00530  -0.97414
    D9        1.08347  -0.00134   0.00000  -0.01531  -0.01533   1.06814
   D10        0.96137  -0.00073   0.00000  -0.00927  -0.00929   0.95208
   D11       -1.15128  -0.00061   0.00000  -0.00695  -0.00696  -1.15824
   D12        3.07920   0.00031   0.00000   0.00327   0.00327   3.08247
   D13       -1.15104  -0.00061   0.00000  -0.00702  -0.00704  -1.15808
   D14        3.01950  -0.00050   0.00000  -0.00470  -0.00471   3.01479
   D15        0.96679   0.00042   0.00000   0.00551   0.00552   0.97232
   D16        3.07952   0.00030   0.00000   0.00314   0.00314   3.08267
   D17        0.96688   0.00042   0.00000   0.00547   0.00547   0.97235
   D18       -1.08583   0.00134   0.00000   0.01568   0.01570  -1.07012
   D19        0.96442  -0.00087   0.00000  -0.01037  -0.01039   0.95403
   D20        3.08217   0.00024   0.00000   0.00256   0.00257   3.08474
   D21       -1.14768  -0.00072   0.00000  -0.00798  -0.00799  -1.15567
   D22       -1.14823  -0.00067   0.00000  -0.00753  -0.00754  -1.15578
   D23        0.96952   0.00044   0.00000   0.00540   0.00541   0.97493
   D24        3.02285  -0.00052   0.00000  -0.00514  -0.00515   3.01771
   D25        3.08266   0.00024   0.00000   0.00246   0.00246   3.08512
   D26       -1.08277   0.00135   0.00000   0.01539   0.01541  -1.06736
   D27        0.97056   0.00039   0.00000   0.00485   0.00485   0.97542
   D28       -0.96406   0.00077   0.00000   0.00982   0.00984  -0.95422
   D29        1.14832   0.00064   0.00000   0.00739   0.00740   1.15572
   D30       -3.08180  -0.00030   0.00000  -0.00297  -0.00297  -3.08477
   D31       -3.08185  -0.00029   0.00000  -0.00287  -0.00287  -3.08472
   D32       -0.96948  -0.00042   0.00000  -0.00530  -0.00531  -0.97478
   D33        1.08359  -0.00135   0.00000  -0.01566  -0.01568   1.06792
   D34        1.14814   0.00065   0.00000   0.00752   0.00753   1.15567
   D35       -3.02267   0.00053   0.00000   0.00509   0.00509  -3.01758
   D36       -0.96960  -0.00041   0.00000  -0.00527  -0.00528  -0.97488
   D37        0.96409  -0.00089   0.00000  -0.01043  -0.01044   0.95365
   D38        3.08253   0.00022   0.00000   0.00231   0.00231   3.08484
   D39       -1.14854  -0.00068   0.00000  -0.00762  -0.00763  -1.15617
   D40       -1.14816  -0.00072   0.00000  -0.00789  -0.00789  -1.15606
   D41        0.97028   0.00039   0.00000   0.00485   0.00486   0.97513
   D42        3.02240  -0.00051   0.00000  -0.00508  -0.00508   3.01731
   D43        3.08195   0.00023   0.00000   0.00253   0.00253   3.08448
   D44       -1.08279   0.00134   0.00000   0.01526   0.01528  -1.06751
   D45        0.96933   0.00043   0.00000   0.00533   0.00534   0.97466
   D46       -0.96260   0.00086   0.00000   0.01006   0.01008  -0.95252
   D47        1.14995   0.00072   0.00000   0.00773   0.00773   1.15769
   D48       -3.08039  -0.00023   0.00000  -0.00273  -0.00273  -3.08312
   D49       -3.08097  -0.00025   0.00000  -0.00272  -0.00272  -3.08370
   D50       -0.96842  -0.00040   0.00000  -0.00506  -0.00507  -0.97349
   D51        1.08442  -0.00135   0.00000  -0.01551  -0.01553   1.06889
   D52        1.14999   0.00066   0.00000   0.00728   0.00729   1.15728
   D53       -3.02065   0.00051   0.00000   0.00495   0.00495  -3.01570
   D54       -0.96781  -0.00044   0.00000  -0.00551  -0.00551  -0.97332
         Item               Value     Threshold  Converged?
 Maximum Force            0.027379     0.000450     NO 
 RMS     Force            0.010717     0.000300     NO 
 Maximum Displacement     0.094383     0.001800     NO 
 RMS     Displacement     0.029339     0.001200     NO 
 Predicted change in Energy=-1.955074D-02
 GradGradGradGradGradGradGradGradGradGradGradGradGradGradGradGradGradGrad

                          Input orientation:                          
 ---------------------------------------------------------------------
 Center     Atomic      Atomic             Coordinates (Angstroms)
 Number     Number       Type             X           Y           Z
 ---------------------------------------------------------------------
      1          6           0       -4.336351    0.137485   -0.011538
      2          6           0       -2.786580    0.139654   -0.016867
      3          6           0       -2.220112    1.582173   -0.011016
      4          6           0       -2.784921    2.409134    1.171832
      5          6           0       -4.334684    2.407677    1.176968
      6          6           0       -4.902050    0.965479    1.170254
      7          1           0       -1.139043    1.552853    0.042970
      8          1           0       -2.425545   -0.389341    0.856617
      9          1           0       -2.420560   -0.396399   -0.883576
     10          1           0       -4.697596    0.553115   -0.944225
     11          1           0       -4.702619   -0.880038    0.042990
     12          1           0       -2.423876    1.991928    2.103878
     13          1           0       -2.418063    3.426513    1.118548
     14          1           0       -4.700624    2.943410    2.043917
     15          1           0       -4.695235    2.937426    0.303749
     16          1           0       -4.647886    0.476912    2.102913
     17          1           0       -5.982990    0.995724    1.114505
     18          1           0       -2.476449    2.070757   -0.943071
 ---------------------------------------------------------------------
                    Distance matrix (angstroms):
                    1          2          3          4          5
     1  C    0.000000
     2  C    1.549781   0.000000
     3  C    2.562341   1.549768   0.000000
     4  C    2.994610   2.561942   1.549839   0.000000
     5  C    2.562483   2.994294   2.562065   1.549772   0.000000
     6  C    1.549911   2.562510   2.994746   2.562494   1.549801
     7  H    3.497001   2.171426   1.082813   2.171742   3.496970
     8  H    2.163889   1.083123   2.163760   2.839009   3.401580
     9  H    2.171575   1.082824   2.171702   3.496924   3.971467
    10  H    1.083121   2.164006   2.840382   3.403061   2.840873
    11  H    1.082810   2.171303   3.496890   3.971209   3.497192
    12  H    3.401692   2.839021   2.163838   1.083109   2.164070
    13  H    3.971729   3.496915   2.171794   1.082813   2.171377
    14  H    3.497257   3.971327   3.496949   2.171612   1.082831
    15  H    2.840400   3.401953   2.839370   2.163784   1.083117
    16  H    2.164062   2.841068   3.403584   2.840956   2.164099
    17  H    2.171628   3.497127   3.971142   3.496950   2.171273
    18  H    2.839812   2.164069   1.083120   2.163901   2.839211
                    6          7          8          9         10
     6  C    0.000000
     7  H    3.971901   0.000000
     8  H    2.840243   2.467636   0.000000
     9  H    3.497245   2.510051   1.740214   0.000000
    10  H    2.163993   3.825876   3.048519   2.467823   0.000000
    11  H    2.171735   4.314862   2.467354   2.510025   1.740271
    12  H    2.840175   2.467981   2.688142   3.824788   4.065823
    13  H    3.497078   2.510650   3.824841   4.315457   4.208054
    14  H    2.171651   4.315356   4.206292   4.992317   3.826553
    15  H    2.163834   3.825121   4.065038   4.206932   2.691167
    16  H    1.083120   4.208681   2.691179   3.826587   3.048495
    17  H    1.082800   4.992234   3.826268   4.315234   2.467084
    18  H    3.401665   1.740446   3.048532   2.468506   2.690118
                   11         12         13         14         15
    11  H    0.000000
    12  H    4.205725   0.000000
    13  H    4.992234   1.740386   0.000000
    14  H    4.315375   2.468298   2.509936   0.000000
    15  H    3.826366   3.048525   2.467513   1.740186   0.000000
    16  H    2.467304   2.691003   3.826386   2.467767   3.048501
    17  H    2.511171   3.826040   4.314795   2.510329   2.466950
    18  H    3.825616   3.048422   2.468148   3.824993   2.688622
                   16         17         18
    16  H    0.000000
    17  H    1.740293   0.000000
    18  H    4.066140   4.205371   0.000000
 Stoichiometry    C6H12
 Framework group  C1[X(C6H12)]
 Deg. of freedom    48
 Full point group                 C1      NOp   1
 Largest Abelian subgroup         C1      NOp   1
 Largest concise Abelian subgroup C1      NOp   1
                         Standard orientation:                         
 ---------------------------------------------------------------------
 Center     Atomic      Atomic             Coordinates (Angstroms)
 Number     Number       Type             X           Y           Z
 ---------------------------------------------------------------------
      1          6           0       -1.091910   -0.998289   -0.230666
      2          6           0        0.318602   -1.444481    0.231059
      3          6           0        1.410309   -0.446482   -0.231496
      4          6           0        1.091944    0.997955    0.231373
      5          6           0       -0.318255    1.444614   -0.230829
      6          6           0       -1.410549    0.446681    0.230586
      7          1           0        2.375269   -0.752299    0.152966
      8          1           0        0.334822   -1.515932    1.311702
      9          1           0        0.536361   -2.433039   -0.153441
     10          1           0       -1.146896   -1.048713   -1.311214
     11          1           0       -1.838430   -1.681150    0.155192
     12          1           0        1.146190    1.046838    1.312017
     13          1           0        1.838800    1.681182   -0.153193
     14          1           0       -0.536095    2.433019    0.154040
     15          1           0       -0.333763    1.516671   -1.311435
     16          1           0       -1.482110    0.469314    1.311103
     17          1           0       -2.374820    0.752281   -0.155737
     18          1           0        1.479831   -0.468163   -1.312165
 ---------------------------------------------------------------------
 Rotational constants (GHZ):      4.2388526      4.2383410      2.4101395
 Standard basis: STO-3G (5D, 7F)
 There are    42 symmetry adapted cartesian basis functions of A   symmetry.
 There are    42 symmetry adapted basis functions of A   symmetry.
    42 basis functions,   126 primitive gaussians,    42 cartesian basis functions
    24 alpha electrons       24 beta electrons
       nuclear repulsion energy       254.2307791559 Hartrees.
 NAtoms=   18 NActive=   18 NUniq=   18 SFac= 1.00D+00 NAtFMM=   60 NAOKFM=F Big=F
 Integral buffers will be    131072 words long.
 Raffenetti 1 integral format.
 Two-electron integral symmetry is turned on.
 One-electron integrals computed using PRISM.
 NBasis=    42 RedAO= T EigKep=  1.96D-01  NBF=    42
 NBsUse=    42 1.00D-06 EigRej= -1.00D+00 NBFU=    42
 Initial guess from the checkpoint file:  "cyclohexane_chair.chk"
 B after Tr=     0.000000    0.000000    0.000000
         Rot=    0.997783   -0.000069   -0.000023   -0.066554 Ang=  -7.63 deg.
 ExpMin= 1.69D-01 ExpMax= 7.16D+01 ExpMxC= 7.16D+01 IAcc=1 IRadAn=         1 AccDes= 0.00D+00
 Harris functional with IExCor=  205 and IRadAn=       1 diagonalized for initial guess.
 HarFok:  IExCor=  205 AccDes= 0.00D+00 IRadAn=         1 IDoV= 1 UseB2=F ITyADJ=14
 ICtDFT=  3500011 ScaDFX=  1.000000  1.000000  1.000000  1.000000
 FoFCou: FMM=F IPFlag=           0 FMFlag=      100000 FMFlg1=           0
         NFxFlg=           0 DoJE=T BraDBF=F KetDBF=T FulRan=T
         wScrn=  0.000000 ICntrl=     500 IOpCl=  0 I1Cent=   200000004 NGrid=           0
         NMat0=    1 NMatS0=      1 NMatT0=    0 NMatD0=    1 NMtDS0=    0 NMtDT0=    0
 Petite list used in FoFCou.
 Keep R1 ints in memory in canonical form, NReq=1270635.
 Requested convergence on RMS density matrix=1.00D-08 within 128 cycles.
 Requested convergence on MAX density matrix=1.00D-06.
 Requested convergence on             energy=1.00D-06.
 No special actions if energy rises.
 SCF Done:  E(RHF) =  -231.482110334     A.U. after    7 cycles
            NFock=  7  Conv=0.44D-08     -V/T= 2.0093
 Calling FoFJK, ICntrl=      2127 FMM=F ISym2X=0 I1Cent= 0 IOpClX= 0 NMat=1 NMatS=1 NMatT=0.
 ***** Axes restored to original set *****
 -------------------------------------------------------------------
 Center     Atomic                   Forces (Hartrees/Bohr)
 Number     Number              X              Y              Z
 -------------------------------------------------------------------
      1        6           0.004794778    0.005792031    0.004600298
      2        6          -0.004794501    0.007034804    0.002142642
      3        6          -0.007155553   -0.002370381    0.004618437
      4        6          -0.004811078   -0.005788395   -0.004621161
      5        6           0.004798203   -0.007026653   -0.002138350
      6        6           0.007154845    0.002357556   -0.004604492
      7        1           0.004771707   -0.000737707    0.001458480
      8        1           0.001147321   -0.001694825    0.004620011
      9        1           0.001007828   -0.001467098   -0.004726641
     10        1          -0.001135495    0.002835793   -0.004027485
     11        1          -0.001063661   -0.004713697    0.001478012
     12        1           0.001140551   -0.002812911    0.004044581
     13        1           0.001055994    0.004712103   -0.001466278
     14        1          -0.001011521    0.001458098    0.004722838
     15        1          -0.001149491    0.001694624   -0.004628068
     16        1           0.002227593   -0.002094404    0.004026335
     17        1          -0.004785980    0.000732743   -0.001464631
     18        1          -0.002191541    0.002088320   -0.004034528
 -------------------------------------------------------------------
 Cartesian Forces:  Max     0.007155553 RMS     0.003781317

 GradGradGradGradGradGradGradGradGradGradGradGradGradGradGradGradGradGrad
 Berny optimization.
 Using GEDIIS/GDIIS optimizer.
 FormGI is forming the generalized inverse of G from B-inverse, IUseBI=4.
 Internal  Forces:  Max     0.004997114 RMS     0.002036179
 Search for a local minimum.
 Step number   2 out of a maximum of  108
 All quantities printed in internal units (Hartrees-Bohrs-Radians)
 Mixed Optimization -- RFO/linear search
 Update second derivatives using D2CorX and points    1    2
 DE= -1.39D-02 DEPred=-1.96D-02 R= 7.09D-01
 TightC=F SS=  1.41D+00  RLast= 3.05D-01 DXNew= 5.0454D-01 9.1614D-01
 Trust test= 7.09D-01 RLast= 3.05D-01 DXMaxT set to 5.05D-01
 ITU=  1  0
 Use linear search instead of GDIIS.
     Eigenvalues ---    0.00745   0.00746   0.00835   0.02091   0.02092
     Eigenvalues ---    0.03802   0.04088   0.04090   0.04444   0.04955
     Eigenvalues ---    0.04955   0.05014   0.05651   0.05651   0.06086
     Eigenvalues ---    0.06213   0.08174   0.08176   0.08237   0.08241
     Eigenvalues ---    0.08243   0.08244   0.08263   0.08266   0.12111
     Eigenvalues ---    0.12141   0.12143   0.16141   0.16143   0.21896
     Eigenvalues ---    0.29240   0.29362   0.29366   0.30836   0.30841
     Eigenvalues ---    0.31005   0.31381   0.31385   0.31385   0.31386
     Eigenvalues ---    0.31392   0.31429   0.31464   0.31466   0.31468
     Eigenvalues ---    0.31471   0.31475   0.43943
 RFO step:  Lambda=-1.15398003D-04 EMin= 7.45302911D-03
 Quartic linear search produced a step of -0.15485.
 Iteration  1 RMS(Cart)=  0.00893359 RMS(Int)=  0.00003347
 Iteration  2 RMS(Cart)=  0.00003391 RMS(Int)=  0.00000979
 Iteration  3 RMS(Cart)=  0.00000000 RMS(Int)=  0.00000979
 Variable       Old X    -DE/DX   Delta X   Delta X   Delta X     New X
                                 (Linear)    (Quad)   (Total)
    R1        2.92866  -0.00492  -0.01015  -0.00039  -0.01054   2.91812
    R2        2.92891  -0.00500  -0.01022  -0.00055  -0.01078   2.91813
    R3        2.04680   0.00494   0.01131  -0.00127   0.01004   2.05684
    R4        2.04621   0.00486   0.01116  -0.00129   0.00986   2.05608
    R5        2.92864  -0.00493  -0.01012  -0.00040  -0.01052   2.91811
    R6        2.04681   0.00494   0.01131  -0.00126   0.01004   2.05685
    R7        2.04624   0.00485   0.01117  -0.00134   0.00983   2.05607
    R8        2.92877  -0.00498  -0.01007  -0.00060  -0.01067   2.91810
    R9        2.04622   0.00486   0.01114  -0.00129   0.00985   2.05607
   R10        2.04680   0.00493   0.01128  -0.00125   0.01004   2.05684
   R11        2.92864  -0.00492  -0.01014  -0.00039  -0.01053   2.91812
   R12        2.04678   0.00494   0.01131  -0.00124   0.01007   2.05685
   R13        2.04622   0.00486   0.01115  -0.00130   0.00985   2.05607
   R14        2.92870  -0.00492  -0.01016  -0.00041  -0.01057   2.91813
   R15        2.04625   0.00484   0.01116  -0.00134   0.00981   2.05607
   R16        2.04679   0.00494   0.01132  -0.00126   0.01006   2.05685
   R17        2.04680   0.00493   0.01131  -0.00127   0.01004   2.05684
   R18        2.04619   0.00487   0.01117  -0.00129   0.00989   2.05608
    A1        1.94643  -0.00018  -0.00057  -0.00390  -0.00452   1.94191
    A2        1.90712   0.00004   0.00036   0.00041   0.00078   1.90790
    A3        1.91744  -0.00023  -0.00077  -0.00182  -0.00259   1.91485
    A4        1.90695   0.00006   0.00040   0.00052   0.00093   1.90788
    A5        1.91788  -0.00028  -0.00084  -0.00222  -0.00307   1.91481
    A6        1.86622   0.00063   0.00151   0.00752   0.00904   1.87525
    A7        1.94637  -0.00016  -0.00042  -0.00406  -0.00451   1.94185
    A8        1.90696   0.00004   0.00037   0.00051   0.00088   1.90784
    A9        1.91780  -0.00026  -0.00087  -0.00206  -0.00294   1.91486
   A10        1.90680   0.00005   0.00038   0.00062   0.00101   1.90781
   A11        1.91799  -0.00027  -0.00089  -0.00212  -0.00302   1.91497
   A12        1.86611   0.00064   0.00152   0.00763   0.00915   1.87526
   A13        1.94586  -0.00018  -0.00067  -0.00342  -0.00412   1.94174
   A14        1.91762  -0.00024  -0.00076  -0.00192  -0.00269   1.91493
   A15        1.90722   0.00004   0.00040   0.00023   0.00064   1.90787
   A16        1.91797  -0.00027  -0.00083  -0.00216  -0.00300   1.91497
   A17        1.90691   0.00007   0.00043   0.00051   0.00095   1.90786
   A18        1.86649   0.00062   0.00152   0.00723   0.00875   1.87524
   A19        1.94599  -0.00017  -0.00063  -0.00357  -0.00423   1.94177
   A20        1.90684   0.00007   0.00043   0.00057   0.00100   1.90784
   A21        1.91804  -0.00028  -0.00083  -0.00222  -0.00306   1.91498
   A22        1.90723   0.00003   0.00040   0.00023   0.00063   1.90786
   A23        1.91755  -0.00023  -0.00079  -0.00184  -0.00264   1.91491
   A24        1.86641   0.00062   0.00152   0.00732   0.00884   1.87524
   A25        1.94652  -0.00016  -0.00041  -0.00416  -0.00461   1.94191
   A26        1.91786  -0.00027  -0.00088  -0.00204  -0.00294   1.91492
   A27        1.90683   0.00005   0.00036   0.00063   0.00099   1.90783
   A28        1.91787  -0.00027  -0.00087  -0.00217  -0.00305   1.91483
   A29        1.90687   0.00004   0.00037   0.00060   0.00098   1.90785
   A30        1.86607   0.00064   0.00152   0.00768   0.00920   1.87527
   A31        1.94638  -0.00017  -0.00060  -0.00383  -0.00447   1.94191
   A32        1.90705   0.00006   0.00039   0.00044   0.00084   1.90789
   A33        1.91774  -0.00028  -0.00084  -0.00207  -0.00291   1.91483
   A34        1.90723   0.00004   0.00039   0.00027   0.00067   1.90790
   A35        1.91738  -0.00024  -0.00077  -0.00177  -0.00255   1.91483
   A36        1.86627   0.00063   0.00152   0.00746   0.00897   1.87524
    D1       -0.95301  -0.00049  -0.00159  -0.01100  -0.01258  -0.96559
    D2        1.15671  -0.00050  -0.00115  -0.01249  -0.01363   1.14308
    D3       -3.08421   0.00014   0.00041  -0.00414  -0.00373  -3.08794
    D4        1.15704  -0.00050  -0.00122  -0.01259  -0.01380   1.14324
    D5       -3.01643  -0.00051  -0.00078  -0.01407  -0.01485  -3.03128
    D6       -0.97416   0.00013   0.00078  -0.00573  -0.00496  -0.97911
    D7       -3.08385   0.00015   0.00038  -0.00430  -0.00391  -3.08777
    D8       -0.97414   0.00014   0.00082  -0.00578  -0.00496  -0.97910
    D9        1.06814   0.00079   0.00237   0.00256   0.00493   1.07307
   D10        0.95208   0.00048   0.00144   0.01181   0.01324   0.96532
   D11       -1.15824   0.00050   0.00108   0.01364   0.01471  -1.14353
   D12        3.08247  -0.00013  -0.00051   0.00555   0.00504   3.08751
   D13       -1.15808   0.00050   0.00109   0.01347   0.01455  -1.14352
   D14        3.01479   0.00052   0.00073   0.01529   0.01602   3.03082
   D15        0.97232  -0.00011  -0.00086   0.00721   0.00636   0.97867
   D16        3.08267  -0.00013  -0.00049   0.00534   0.00485   3.08752
   D17        0.97235  -0.00011  -0.00085   0.00716   0.00632   0.97867
   D18       -1.07012  -0.00074  -0.00243  -0.00092  -0.00335  -1.07347
   D19        0.95403   0.00048   0.00161   0.01029   0.01189   0.96592
   D20        3.08474  -0.00015  -0.00040   0.00391   0.00351   3.08824
   D21       -1.15567   0.00048   0.00124   0.01169   0.01292  -1.14275
   D22       -1.15578   0.00050   0.00117   0.01184   0.01301  -1.14277
   D23        0.97493  -0.00013  -0.00084   0.00546   0.00463   0.97955
   D24        3.01771   0.00050   0.00080   0.01324   0.01404   3.03175
   D25        3.08512  -0.00015  -0.00038   0.00347   0.00308   3.08820
   D26       -1.06736  -0.00078  -0.00239  -0.00291  -0.00529  -1.07265
   D27        0.97542  -0.00014  -0.00075   0.00487   0.00412   0.97954
   D28       -0.95422  -0.00047  -0.00152  -0.01026  -0.01177  -0.96599
   D29        1.15572  -0.00049  -0.00115  -0.01189  -0.01303   1.14269
   D30       -3.08477   0.00014   0.00046  -0.00398  -0.00352  -3.08829
   D31       -3.08472   0.00014   0.00044  -0.00402  -0.00357  -3.08829
   D32       -0.97478   0.00012   0.00082  -0.00565  -0.00483  -0.97961
   D33        1.06792   0.00075   0.00243   0.00226   0.00468   1.07260
   D34        1.15567  -0.00049  -0.00117  -0.01182  -0.01299   1.14268
   D35       -3.01758  -0.00051  -0.00079  -0.01345  -0.01424  -3.03182
   D36       -0.97488   0.00012   0.00082  -0.00555  -0.00473  -0.97961
   D37        0.95365   0.00048   0.00162   0.01054   0.01214   0.96579
   D38        3.08484  -0.00015  -0.00036   0.00356   0.00320   3.08803
   D39       -1.15617   0.00050   0.00118   0.01204   0.01322  -1.14296
   D40       -1.15606   0.00049   0.00122   0.01196   0.01318  -1.14288
   D41        0.97513  -0.00015  -0.00075   0.00499   0.00424   0.97937
   D42        3.01731   0.00050   0.00079   0.01347   0.01426   3.03157
   D43        3.08448  -0.00015  -0.00039   0.00404   0.00364   3.08813
   D44       -1.06751  -0.00078  -0.00237  -0.00294  -0.00530  -1.07281
   D45        0.97466  -0.00013  -0.00083   0.00554   0.00472   0.97939
   D46       -0.95252  -0.00049  -0.00156  -0.01137  -0.01292  -0.96544
   D47        1.15769  -0.00050  -0.00120  -0.01310  -0.01429   1.14340
   D48       -3.08312   0.00014   0.00042  -0.00494  -0.00451  -3.08763
   D49       -3.08370   0.00014   0.00042  -0.00447  -0.00404  -3.08774
   D50       -0.97349   0.00013   0.00078  -0.00619  -0.00541  -0.97890
   D51        1.06889   0.00077   0.00241   0.00197   0.00437   1.07326
   D52        1.15728  -0.00050  -0.00113  -0.01286  -0.01399   1.14329
   D53       -3.01570  -0.00051  -0.00077  -0.01459  -0.01536  -3.03106
   D54       -0.97332   0.00013   0.00085  -0.00643  -0.00558  -0.97890
         Item               Value     Threshold  Converged?
 Maximum Force            0.004997     0.000450     NO 
 RMS     Force            0.002036     0.000300     NO 
 Maximum Displacement     0.035648     0.001800     NO 
 RMS     Displacement     0.008951     0.001200     NO 
 Predicted change in Energy=-5.796994D-04
 GradGradGradGradGradGradGradGradGradGradGradGradGradGradGradGradGradGrad

                          Input orientation:                          
 ---------------------------------------------------------------------
 Center     Atomic      Atomic             Coordinates (Angstroms)
 Number     Number       Type             X           Y           Z
 ---------------------------------------------------------------------
      1          6           0       -4.333645    0.145198   -0.011900
      2          6           0       -2.789443    0.143575   -0.010565
      3          6           0       -2.228000    1.582093   -0.010948
      4          6           0       -2.787894    2.401811    1.171892
      5          6           0       -4.332093    2.403654    1.170498
      6          6           0       -4.893820    0.965240    1.170604
      7          1           0       -1.141806    1.552220    0.044623
      8          1           0       -2.430809   -0.382513    0.872221
      9          1           0       -2.422248   -0.394058   -0.882296
     10          1           0       -4.692394    0.570932   -0.947175
     11          1           0       -4.701764   -0.877166    0.043502
     12          1           0       -2.429278    1.975519    2.106965
     13          1           0       -2.419569    3.424126    1.117052
     14          1           0       -4.699308    2.941084    2.042345
     15          1           0       -4.690601    2.930018    0.287823
     16          1           0       -4.629022    0.475421    2.105829
     17          1           0       -5.979978    0.995425    1.114363
     18          1           0       -2.493512    2.071886   -0.945983
 ---------------------------------------------------------------------
                    Distance matrix (angstroms):
                    1          2          3          4          5
     1  C    0.000000
     2  C    1.544204   0.000000
     3  C    2.549198   1.544199   0.000000
     4  C    2.980439   2.549086   1.544193   0.000000
     5  C    2.549253   2.980375   2.549115   1.544201   0.000000
     6  C    1.544209   2.549254   2.980464   2.549248   1.544206
     7  H    3.488659   2.168417   1.088025   2.168444   3.488620
     8  H    2.163547   1.088439   2.163515   2.823079   3.386234
     9  H    2.168369   1.088024   2.168444   3.488592   3.960892
    10  H    1.088435   2.163584   2.823510   3.386693   2.823690
    11  H    1.088030   2.168365   3.488614   3.960790   3.488632
    12  H    3.386189   2.823061   2.163528   1.088436   2.163556
    13  H    3.961008   3.488602   2.168449   1.088025   2.168402
    14  H    3.488641   3.960818   3.488586   2.168411   1.088024
    15  H    2.823557   3.386400   2.823220   2.163533   1.088440
    16  H    2.163578   2.823703   3.386794   2.823645   2.163584
    17  H    2.168356   3.488642   3.960788   3.488643   2.168360
    18  H    2.823248   2.163554   1.088433   2.163541   2.823109
                    6          7          8          9         10
     6  C    0.000000
     7  H    3.961058   0.000000
     8  H    2.823454   2.467719   0.000000
     9  H    3.488661   2.507330   1.754576   0.000000
    10  H    2.163571   3.814874   3.055165   2.467586   0.000000
    11  H    2.168341   4.309897   2.467528   2.507327   1.754571
    12  H    2.823367   2.467797   2.661750   3.814528   4.052448
    13  H    3.488682   2.507352   3.814521   4.309980   4.191358
    14  H    2.168347   4.309949   4.190654   4.986151   3.815089
    15  H    2.163551   3.814633   4.052289   4.190953   2.662801
    16  H    1.088433   4.191508   2.662702   3.815067   3.055155
    17  H    1.088032   4.986208   3.814964   4.309843   2.467388
    18  H    3.386161   1.754555   3.055139   2.467796   2.662320
                   11         12         13         14         15
    11  H    0.000000
    12  H    4.190451   0.000000
    13  H    4.986184   1.754561   0.000000
    14  H    4.309804   2.467697   2.507330   0.000000
    15  H    3.815032   3.055148   2.467661   1.754579   0.000000
    16  H    2.467382   2.662549   3.815000   2.467482   3.055157
    17  H    2.507423   3.814880   4.309885   2.507361   2.467450
    18  H    3.814756   3.055144   2.467820   3.814596   2.661929
                   16         17         18
    16  H    0.000000
    17  H    1.754563   0.000000
    18  H    4.052488   4.190374   0.000000
 Stoichiometry    C6H12
 Framework group  C1[X(C6H12)]
 Deg. of freedom    48
 Full point group                 C1      NOp   1
 Largest Abelian subgroup         C1      NOp   1
 Largest concise Abelian subgroup C1      NOp   1
                         Standard orientation:                         
 ---------------------------------------------------------------------
 Center     Atomic      Atomic             Coordinates (Angstroms)
 Number     Number       Type             X           Y           Z
 ---------------------------------------------------------------------
      1          6           0       -1.159343   -0.906724   -0.233576
      2          6           0        0.205594   -1.457313    0.233718
      3          6           0        1.364863   -0.550646   -0.233831
      4          6           0        1.159355    0.906620    0.233793
      5          6           0       -0.205474    1.457345   -0.233647
      6          6           0       -1.364925    0.550712    0.233537
      7          1           0        2.307666   -0.931074    0.153719
      8          1           0        0.214830   -1.521828    1.320204
      9          1           0        0.347489   -2.463950   -0.154023
     10          1           0       -1.211008   -0.947213   -1.320030
     11          1           0       -1.960009   -1.532878    0.154594
     12          1           0        1.210661    0.946619    1.320283
     13          1           0        1.960139    1.532960   -0.153817
     14          1           0       -0.347489    2.463895    0.154276
     15          1           0       -0.214479    1.522087   -1.320123
     16          1           0       -1.425874    0.575330    1.319984
     17          1           0       -2.307503    0.931012   -0.154707
     18          1           0        1.425154   -0.574928   -1.320322
 ---------------------------------------------------------------------
 Rotational constants (GHZ):      4.2663695      4.2661941      2.4333422
 Standard basis: STO-3G (5D, 7F)
 There are    42 symmetry adapted cartesian basis functions of A   symmetry.
 There are    42 symmetry adapted basis functions of A   symmetry.
    42 basis functions,   126 primitive gaussians,    42 cartesian basis functions
    24 alpha electrons       24 beta electrons
       nuclear repulsion energy       254.8287191993 Hartrees.
 NAtoms=   18 NActive=   18 NUniq=   18 SFac= 1.00D+00 NAtFMM=   60 NAOKFM=F Big=F
 Integral buffers will be    131072 words long.
 Raffenetti 1 integral format.
 Two-electron integral symmetry is turned on.
 One-electron integrals computed using PRISM.
 NBasis=    42 RedAO= T EigKep=  1.95D-01  NBF=    42
 NBsUse=    42 1.00D-06 EigRej= -1.00D+00 NBFU=    42
 Initial guess from the checkpoint file:  "cyclohexane_chair.chk"
 B after Tr=     0.000000    0.000000    0.000000
         Rot=    0.999262   -0.000008   -0.000005    0.038415 Ang=  -4.40 deg.
 ExpMin= 1.69D-01 ExpMax= 7.16D+01 ExpMxC= 7.16D+01 IAcc=1 IRadAn=         1 AccDes= 0.00D+00
 Harris functional with IExCor=  205 and IRadAn=       1 diagonalized for initial guess.
 HarFok:  IExCor=  205 AccDes= 0.00D+00 IRadAn=         1 IDoV= 1 UseB2=F ITyADJ=14
 ICtDFT=  3500011 ScaDFX=  1.000000  1.000000  1.000000  1.000000
 FoFCou: FMM=F IPFlag=           0 FMFlag=      100000 FMFlg1=           0
         NFxFlg=           0 DoJE=T BraDBF=F KetDBF=T FulRan=T
         wScrn=  0.000000 ICntrl=     500 IOpCl=  0 I1Cent=   200000004 NGrid=           0
         NMat0=    1 NMatS0=      1 NMatT0=    0 NMatD0=    1 NMtDS0=    0 NMtDT0=    0
 Petite list used in FoFCou.
 Keep R1 ints in memory in canonical form, NReq=1270635.
 Requested convergence on RMS density matrix=1.00D-08 within 128 cycles.
 Requested convergence on MAX density matrix=1.00D-06.
 Requested convergence on             energy=1.00D-06.
 No special actions if energy rises.
 SCF Done:  E(RHF) =  -231.482667747     A.U. after    7 cycles
            NFock=  7  Conv=0.12D-08     -V/T= 2.0093
 Calling FoFJK, ICntrl=      2127 FMM=F ISym2X=0 I1Cent= 0 IOpClX= 0 NMat=1 NMatS=1 NMatT=0.
 ***** Axes restored to original set *****
 -------------------------------------------------------------------
 Center     Atomic                   Forces (Hartrees/Bohr)
 Number     Number              X              Y              Z
 -------------------------------------------------------------------
      1        6           0.000226625   -0.000027051    0.000434939
      2        6          -0.000232369    0.000337310   -0.000244905
      3        6          -0.000075226   -0.000221288    0.000411310
      4        6          -0.000233219    0.000007440   -0.000412197
      5        6           0.000224968   -0.000336321    0.000251538
      6        6           0.000064033    0.000225435   -0.000434961
      7        1           0.000105460    0.000090738   -0.000168530
      8        1          -0.000043204    0.000059266   -0.000052431
      9        1           0.000129472   -0.000178497    0.000045931
     10        1           0.000047688    0.000000486    0.000078552
     11        1          -0.000125152   -0.000061316   -0.000185384
     12        1          -0.000042138    0.000005909   -0.000076850
     13        1           0.000124147    0.000064425    0.000169427
     14        1          -0.000122122    0.000189001   -0.000048600
     15        1           0.000042603   -0.000063297    0.000052340
     16        1           0.000020456    0.000042214   -0.000078456
     17        1          -0.000100774   -0.000095041    0.000183143
     18        1          -0.000011248   -0.000039413    0.000075134
 -------------------------------------------------------------------
 Cartesian Forces:  Max     0.000434961 RMS     0.000179665

 GradGradGradGradGradGradGradGradGradGradGradGradGradGradGradGradGradGrad
 Berny optimization.
 Using GEDIIS/GDIIS optimizer.
 FormGI is forming the generalized inverse of G from B-inverse, IUseBI=4.
 Internal  Forces:  Max     0.000141823 RMS     0.000060637
 Search for a local minimum.
 Step number   3 out of a maximum of  108
 All quantities printed in internal units (Hartrees-Bohrs-Radians)
 Mixed Optimization -- En-DIIS/RFO-DIIS
 Update second derivatives using D2CorX and points    1    2    3
 DE= -5.57D-04 DEPred=-5.80D-04 R= 9.62D-01
 TightC=F SS=  1.41D+00  RLast= 8.76D-02 DXNew= 8.4853D-01 2.6285D-01
 Trust test= 9.62D-01 RLast= 8.76D-02 DXMaxT set to 5.05D-01
 ITU=  1  1  0
 Use linear search instead of GDIIS.
     Eigenvalues ---    0.00750   0.00751   0.00825   0.02106   0.02107
     Eigenvalues ---    0.03847   0.04148   0.04148   0.04725   0.04965
     Eigenvalues ---    0.04965   0.05033   0.05672   0.05672   0.06136
     Eigenvalues ---    0.06155   0.08135   0.08135   0.08180   0.08182
     Eigenvalues ---    0.08182   0.08183   0.08195   0.08195   0.12065
     Eigenvalues ---    0.12098   0.12098   0.16066   0.16067   0.21910
     Eigenvalues ---    0.29183   0.29355   0.29360   0.30835   0.30841
     Eigenvalues ---    0.30921   0.31381   0.31385   0.31385   0.31386
     Eigenvalues ---    0.31392   0.31427   0.31464   0.31466   0.31468
     Eigenvalues ---    0.31471   0.31475   0.44817
 RFO step:  Lambda=-7.48107286D-06 EMin= 7.50097536D-03
 Quartic linear search produced a step of -0.00136.
 Iteration  1 RMS(Cart)=  0.00146905 RMS(Int)=  0.00000165
 Iteration  2 RMS(Cart)=  0.00000159 RMS(Int)=  0.00000046
 Iteration  3 RMS(Cart)=  0.00000000 RMS(Int)=  0.00000046
 Variable       Old X    -DE/DX   Delta X   Delta X   Delta X     New X
                                 (Linear)    (Quad)   (Total)
    R1        2.91812  -0.00014   0.00001  -0.00058  -0.00056   2.91756
    R2        2.91813  -0.00013   0.00001  -0.00058  -0.00056   2.91757
    R3        2.05684  -0.00008  -0.00001  -0.00014  -0.00015   2.05669
    R4        2.05608   0.00009  -0.00001   0.00041   0.00040   2.05648
    R5        2.91811  -0.00014   0.00001  -0.00057  -0.00056   2.91755
    R6        2.05685  -0.00009  -0.00001  -0.00015  -0.00016   2.05669
    R7        2.05607   0.00010  -0.00001   0.00042   0.00041   2.05648
    R8        2.91810  -0.00014   0.00001  -0.00056  -0.00055   2.91755
    R9        2.05607   0.00009  -0.00001   0.00042   0.00041   2.05648
   R10        2.05684  -0.00008  -0.00001  -0.00013  -0.00014   2.05670
   R11        2.91812  -0.00014   0.00001  -0.00058  -0.00056   2.91755
   R12        2.05685  -0.00008  -0.00001  -0.00014  -0.00015   2.05670
   R13        2.05607   0.00009  -0.00001   0.00042   0.00041   2.05648
   R14        2.91813  -0.00014   0.00001  -0.00058  -0.00056   2.91756
   R15        2.05607   0.00010  -0.00001   0.00043   0.00041   2.05648
   R16        2.05685  -0.00009  -0.00001  -0.00015  -0.00016   2.05669
   R17        2.05684  -0.00008  -0.00001  -0.00013  -0.00015   2.05669
   R18        2.05608   0.00009  -0.00001   0.00040   0.00039   2.05647
    A1        1.94191   0.00002   0.00001  -0.00008  -0.00008   1.94183
    A2        1.90790  -0.00003   0.00000  -0.00080  -0.00080   1.90710
    A3        1.91485   0.00003   0.00000   0.00117   0.00117   1.91601
    A4        1.90788  -0.00003   0.00000  -0.00077  -0.00078   1.90710
    A5        1.91481   0.00004   0.00000   0.00121   0.00121   1.91602
    A6        1.87525  -0.00004  -0.00001  -0.00075  -0.00077   1.87449
    A7        1.94185   0.00002   0.00001  -0.00006  -0.00006   1.94180
    A8        1.90784  -0.00003   0.00000  -0.00074  -0.00074   1.90710
    A9        1.91486   0.00004   0.00000   0.00116   0.00117   1.91602
   A10        1.90781  -0.00002   0.00000  -0.00069  -0.00069   1.90711
   A11        1.91497   0.00003   0.00000   0.00106   0.00106   1.91603
   A12        1.87526  -0.00004  -0.00001  -0.00076  -0.00077   1.87449
   A13        1.94174   0.00003   0.00001   0.00002   0.00002   1.94176
   A14        1.91493   0.00004   0.00000   0.00110   0.00111   1.91604
   A15        1.90787  -0.00003   0.00000  -0.00075  -0.00075   1.90711
   A16        1.91497   0.00003   0.00000   0.00107   0.00107   1.91604
   A17        1.90786  -0.00003   0.00000  -0.00074  -0.00075   1.90711
   A18        1.87524  -0.00004  -0.00001  -0.00073  -0.00074   1.87450
   A19        1.94177   0.00003   0.00001   0.00000   0.00001   1.94178
   A20        1.90784  -0.00003   0.00000  -0.00072  -0.00073   1.90711
   A21        1.91498   0.00003   0.00000   0.00106   0.00106   1.91604
   A22        1.90786  -0.00003   0.00000  -0.00075  -0.00075   1.90711
   A23        1.91491   0.00004   0.00000   0.00111   0.00112   1.91602
   A24        1.87524  -0.00004  -0.00001  -0.00074  -0.00075   1.87449
   A25        1.94191   0.00002   0.00001  -0.00010  -0.00010   1.94181
   A26        1.91492   0.00003   0.00000   0.00110   0.00110   1.91602
   A27        1.90783  -0.00002   0.00000  -0.00072  -0.00072   1.90711
   A28        1.91483   0.00004   0.00000   0.00120   0.00120   1.91602
   A29        1.90785  -0.00003   0.00000  -0.00074  -0.00074   1.90710
   A30        1.87527  -0.00004  -0.00001  -0.00077  -0.00078   1.87449
   A31        1.94191   0.00003   0.00001  -0.00006  -0.00006   1.94185
   A32        1.90789  -0.00003   0.00000  -0.00079  -0.00079   1.90710
   A33        1.91483   0.00004   0.00000   0.00118   0.00118   1.91601
   A34        1.90790  -0.00003   0.00000  -0.00079  -0.00079   1.90710
   A35        1.91483   0.00003   0.00000   0.00116   0.00117   1.91600
   A36        1.87524  -0.00004  -0.00001  -0.00074  -0.00075   1.87449
    D1       -0.96559   0.00007   0.00002  -0.00017  -0.00015  -0.96574
    D2        1.14308   0.00003   0.00002  -0.00157  -0.00155   1.14153
    D3       -3.08794  -0.00002   0.00001  -0.00225  -0.00224  -3.09018
    D4        1.14324   0.00002   0.00002  -0.00172  -0.00170   1.14153
    D5       -3.03128  -0.00001   0.00002  -0.00312  -0.00310  -3.03438
    D6       -0.97911  -0.00006   0.00001  -0.00380  -0.00379  -0.98291
    D7       -3.08777  -0.00002   0.00001  -0.00243  -0.00242  -3.09019
    D8       -0.97910  -0.00006   0.00001  -0.00382  -0.00382  -0.98292
    D9        1.07307  -0.00011  -0.00001  -0.00450  -0.00451   1.06856
   D10        0.96532  -0.00006  -0.00002   0.00034   0.00032   0.96564
   D11       -1.14353  -0.00002  -0.00002   0.00189   0.00187  -1.14166
   D12        3.08751   0.00002  -0.00001   0.00256   0.00255   3.09007
   D13       -1.14352  -0.00002  -0.00002   0.00190   0.00188  -1.14164
   D14        3.03082   0.00002  -0.00002   0.00345   0.00343   3.03425
   D15        0.97867   0.00006  -0.00001   0.00413   0.00412   0.98279
   D16        3.08752   0.00002  -0.00001   0.00257   0.00256   3.09008
[...]
 .0961025,0.5972384,-0.1560445,1.1182608,-0.7505097,0.0041396,1.6428015
 ,-0.3495119,0.4102235,0.0862052,-0.1491832,1.4503937,-0.7045371,4.6210
 962,1.5983431,2.6406146,0.8757651,0.1373628,0.1086448,0.3361732,0.5323
 974,1.8346449,6.1955223,0.1742889,0.4521903,-0.159759,-0.0727403,0.096
 325,0.24098,1.2316855,1.875302,0.2691527,-1.5920231,1.6162309,-0.61286
 72,2.0910618,-0.2901866,-0.5981258,0.2415741,-1.5515723,2.9860872,-0.2
 902091,2.3170166,0.8765607,0.47741,-0.3681388,0.7644517,-1.509148,2.21
 05092,3.9086495,-1.3371596,1.4040263,-0.5961012,-1.738545,0.0986047,-0
 .3157129,0.2468435,-1.3849298,2.5900897,0.0986642,-1.8167765,0.4624204
 ,-0.3621426,0.1807197,-0.5047466,-1.1823827,1.7338405,-2.9454585,-0.09
 33989,-0.9117921,0.3315533,1.7429476,0.1619364,0.1069029,0.0095122,0.4
 772694,-1.8819001,0.2539512,2.044581,-0.6834622,-0.0164798,0.2539463,0
 .2781759,0.1250444,-1.6082651,4.6195093,-7.2370991,-0.259655,0.0693864
 ,0.5024101,0.0299165,0.0267308,-0.1355822,-2.2434081,0.285659,-0.03575
 81,0.0819983,-0.3713908,0.2624265,-0.0357156,-0.0957853,-2.1949931,-0.
 4630057,0.2651925,0.0932257,0.9117957,-0.3315597,-1.7429289,-0.1619048
 ,-0.1069566,-0.0095065,-0.4773753,1.881888,-0.2539283,-2.0445539,0.683
 4646,0.0164679,-0.2539222,-0.2781634,-0.1251905,1.6082768,-4.6194139\H
 yperPolar=0.000213,0.0001958,0.0001101,-0.0000075,-0.0003459,0.0001424
 ,0.0002249,-0.000132,-0.0000945,0.0000946\PG=C01 [X(C6H12)]\NImag=0\\0
 .72115372,0.03551804,0.85763094,0.04360027,-0.05833622,0.80105640,-0.3
 0906142,0.00081552,-0.00461657,0.72102971,0.00353064,-0.11940756,0.003
 17980,-0.05602145,0.76490917,-0.00319474,0.00260617,-0.12341254,-0.004
 24390,0.00605725,0.89390207,-0.01803348,-0.04728271,0.00090709,-0.1431
 5587,-0.06416938,-0.00130774,0.86355080,-0.00733366,0.00335843,0.00104
 565,-0.06145334,-0.28531750,0.00380122,-0.02025281,0.71524573,-0.00132
 196,-0.00049625,0.00150630,-0.00132179,0.00533173,-0.12340926,0.038451
 60,-0.06193349,0.80104630,0.00163698,0.00174379,-0.00033539,0.01034033
 ,-0.00578937,-0.01449990,-0.14302182,0.03602514,0.04962130,0.72115281,
 0.00174373,0.00462612,0.00068432,0.01515629,-0.02595136,-0.03662393,0.
 03756007,-0.17175961,-0.07504260,0.03551840,0.85763573,-0.00033543,0.0
 0068437,0.00007088,-0.00351160,-0.00431572,0.00244224,0.05186301,-0.07
 351393,-0.23710042,0.04360393,-0.05833694,0.80105285,0.01034095,0.0151
 5691,-0.00351162,0.00163364,-0.00071582,-0.00162119,-0.01797552,0.0052
 8624,0.00528703,-0.30906166,0.00081764,-0.00461681,0.72102952,-0.00578
 978,-0.02595076,-0.00431551,-0.00071591,0.00219170,0.00237505,0.026213
 87,0.00233116,0.00171468,0.00353273,-0.11940809,0.00318002,-0.05602060
 ,0.76490953,-0.01450021,-0.03662250,0.00244247,-0.00162119,0.00237507,
 0.00250859,0.03938773,0.00014775,0.00247560,-0.00319558,0.00260661,-0.
 12341200,-0.00424696,0.00605452,0.89390177,-0.14302351,0.03756306,0.05
 186502,-0.01797527,0.02621453,0.03938648,0.00541361,0.00026463,-0.0005
 1087,-0.01803389,-0.04728229,0.00090614,-0.14315721,-0.06417169,-0.001
 30828,0.86354282,0.03602776,-0.17176318,-0.07351478,0.00528599,0.00233
 151,0.00014832,0.00026458,0.00084969,0.00056249,-0.00733332,0.00335920
 ,0.00104551,-0.06145512,-0.28531548,0.00379860,-0.02025251,0.71524825,
 0.04962210,-0.07504442,-0.23709698,0.00528667,0.00171497,0.00247617,-0
 .00051081,0.00056247,0.00007070,-0.00132231,-0.00049672,0.00150630,-0.
 00132254,0.00532989,-0.12340972,0.03845213,-0.06193111,0.80105042,0.00
 101215,-0.00182125,0.00004643,-0.00948842,0.00348179,-0.00084479,-0.45
 458796,0.01277793,-0.02391554,-0.00944464,-0.00127956,-0.00333287,0.00
 101438,0.00099325,0.00151497,0.00050474,0.00012728,-0.00024501,0.47169
 100,-0.00039374,-0.00869082,-0.00014680,-0.04532965,0.00310437,-0.0028
 0268,0.01144151,-0.07486512,0.00410045,0.02468288,0.00010003,0.0028303
 6,0.00011751,-0.00248544,-0.00445253,0.00021974,-0.00073265,-0.0004820
 9,-0.01180055,0.07540149,0.00012251,-0.00014849,0.00070277,0.00140322,
 0.00077508,0.00009855,-0.02136317,0.00409872,-0.08051156,0.03805981,-0
 .00077677,0.00305900,0.00038509,-0.00445006,-0.00550486,-0.00042159,-0
 .00048198,-0.00006381,0.02203034,0.00021185,0.07507157,-0.01334141,0.0
 2194885,-0.03999362,-0.11523862,0.06122142,-0.09911743,0.00630249,-0.0
 0996960,0.01715769,-0.00020049,0.00065182,0.00003561,-0.00037432,-0.00
 014908,0.00012120,0.00238833,-0.00073420,-0.00093845,0.00107476,0.0008
 2421,0.00036807,0.11896940,-0.00226494,0.00162140,-0.00276602,0.061220
 24,-0.16336026,0.14547154,0.01422311,-0.01805166,0.03622927,0.00027910
 ,0.00242062,0.00099490,-0.00014900,-0.00025741,-0.00017793,-0.00036260
 ,-0.00016807,0.00032886,0.00079642,0.00244051,-0.00060661,-0.05998963,
 0.16613941,0.00347594,-0.00273497,0.00448333,-0.09759287,0.14323724,-0
 .33168353,0.00128718,-0.00425226,0.00451226,-0.00000734,-0.00053818,0.
 00088094,0.00003175,-0.00004681,-0.00010837,0.00050455,-0.00019041,0.0
 0088062,0.00017986,-0.00017088,0.00031361,0.10581023,-0.15528308,0.339
 16391,-0.01274246,0.02273424,0.03785180,-0.11690397,0.06469327,0.10170
 705,0.00678509,-0.00932277,-0.01592501,-0.00165581,-0.00361946,0.00110
 109,-0.00045282,-0.00077971,-0.00018049,-0.00815781,-0.00190624,-0.002
 55641,0.00085391,0.00076824,-0.00031629,0.00631671,-0.00934003,-0.0145
 9598,0.11985138,-0.00168293,0.00152126,0.00227362,0.06469440,-0.167414
 53,-0.14887051,0.01511589,-0.01797958,-0.03441612,-0.00445535,-0.00599
 601,0.00230631,-0.00077979,0.00015779,0.00026371,-0.00107071,0.0005091
 1,-0.00018504,0.00050436,0.00200248,0.00035932,-0.00936296,0.01364261,
 0.02140864,-0.06491320,0.17052223,-0.00461580,0.00312832,0.00493525,0.
 10008332,-0.14649093,-0.32564566,-0.00122066,0.00542068,0.00490853,0.0
 0061349,0.00125411,0.00067585,-0.00006813,0.00009908,0.00000331,-0.001
 39845,-0.00011531,0.00067289,-0.00017730,0.00015693,0.00012488,0.01495
 582,-0.02190406,-0.02064944,-0.10784818,0.15786913,0.33179105,-0.11525
 720,0.04662183,-0.10677670,-0.01334238,0.02037731,-0.04081602,0.002389
 69,0.00118767,0.00006666,-0.00037407,-0.00001465,0.00019166,-0.0002015
 2,-0.00039780,-0.00051429,0.00628746,-0.00840641,0.01792462,0.00023571
 ,0.00013062,0.00022223,-0.00848346,-0.00120809,0.00128914,0.00280835,-
 0.00042502,0.00014930,0.11897797,0.04536837,-0.14196674,0.12842620,-0.
 00155240,0.00095887,-0.00224549,-0.00021046,0.00060405,-0.00072636,0.0
 0005889,-0.00026203,-0.00004390,-0.00015104,0.00159502,0.00003530,-0.0
 0916843,0.01217944,-0.02521028,0.00001563,0.00001057,0.00000180,-0.000
 36120,0.00099153,0.00000903,-0.00016387,0.00007038,0.00021185,-0.05283
 525,0.13770126,-0.10590486,0.13065915,-0.35305654,0.00384934,-0.002335
 56,0.00514610,0.00058405,-0.00020834,0.00010714,0.00014051,-0.00017490
 ,-0.00010401,-0.00023087,0.00156781,0.00170734,-0.01095669,0.01530158,
 -0.02570381,0.00007453,0.00010042,0.00008166,0.00173264,0.00027575,0.0
 0079168,-0.00006608,-0.00012200,0.00095037,0.10957551,-0.13557791,0.36
 759208,-0.11715224,-0.12074446,0.00482201,-0.01278285,-0.04404066,0.00
 288788,-0.00815260,0.00319586,0.00011505,-0.00045105,0.00059334,0.0005
 3825,-0.00164838,0.00115788,0.00359657,0.00678859,0.01835568,-0.001408
 54,-0.00044778,-0.00234393,-0.00016359,0.00280892,0.00014518,0.0000953
 9,0.00228196,0.00020871,-0.00007979,0.00633610,0.01732040,-0.00064758,
 0.12010778,-0.11940945,-0.41232914,0.02352482,0.00477231,0.00639783,-0
 .00022916,0.00176833,0.00047388,-0.00009560,0.00050099,0.00022218,0.00
 005282,0.00203446,0.00017411,-0.00303021,-0.00763060,-0.01610823,0.004
 12085,0.00001777,0.00046328,-0.00003706,0.00011709,0.00070651,-0.00022
 951,-0.00005501,0.00057417,0.00022250,-0.00697700,-0.00976170,-0.00568
 262,0.12592977,0.42701697,0.00389355,0.02114712,-0.08048408,-0.0012406
 8,-0.00105286,0.00009921,0.00008792,-0.00016604,0.00070276,0.00060251,
 0.00021736,-0.00006284,0.00400705,-0.00197804,-0.00550153,-0.01315795,
 -0.03571782,0.00303318,0.00009370,0.00013720,0.00020886,0.00043242,-0.
 00056370,0.00031364,-0.00021771,0.00042587,0.00012494,0.01625316,0.037
 59907,0.00273550,-0.00814124,-0.02018285,0.07504153,-0.00037409,-0.000
 01466,0.00019167,-0.00020145,-0.00039783,-0.00051436,0.00628759,-0.008
 40689,0.01792390,-0.11525550,0.04662557,-0.10677336,-0.01334200,0.0203
 7888,-0.04081563,0.00238977,0.00118757,0.00006667,0.00107272,-0.000772
 15,-0.00046600,0.00018264,0.00011380,-0.00010255,0.00001281,0.00002216
 ,-0.00003570,0.00001937,0.00003787,0.00008091,0.00014276,-0.00009467,-
 0.00010152,0.11897575,0.00005890,-0.00026201,-0.00004388,-0.00015108,0
 .00159508,0.00003508,-0.00916815,0.01217972,-0.02520936,0.04537240,-0.
 14197808,0.12843765,-0.00155237,0.00095883,-0.00224508,-0.00021050,0.0
 0060406,-0.00072637,-0.00060139,0.00064130,0.00107810,0.00001918,-0.00
 009656,0.00003205,0.00005646,0.00007097,0.00012844,0.00003787,-0.00002
 383,0.00005563,-0.00008246,0.00000507,0.00001425,-0.05283913,0.1377134
 9,0.00014050,-0.00017493,-0.00010400,-0.00023088,0.00156805,0.00170753
 ,-0.01095727,0.01530272,-0.02570450,-0.10590182,0.13066988,-0.35304921
 ,0.00384918,-0.00233578,0.00514588,0.00058403,-0.00020832,0.00010714,-
 0.00055081,0.00064255,0.00211477,-0.00015241,-0.00043954,0.00018611,0.
 00016814,0.00017364,0.00024416,0.00008092,0.00005563,0.00006459,-0.000
 11001,-0.00000751,0.00004598,0.10957242,-0.13558923,0.36758460,-0.0004
 5104,0.00059336,0.00053825,-0.00164823,0.00115793,0.00359668,0.0067885
 8,0.01835524,-0.00140809,-0.11715556,-0.12074813,0.00481807,-0.0127831
 1,-0.04404033,0.00288655,-0.00815249,0.00319602,0.00011495,0.00085288,
 -0.00017698,-0.00081049,0.00001267,-0.00017002,0.00004932,0.00070365,0
 .00102209,-0.00005889,0.00014276,-0.00008246,-0.00011001,0.00027606,-0
 .00011479,-0.00016475,0.00633621,0.01732002,-0.00064700,0.12011108,0.0
 0050099,0.00022216,0.00005281,0.00203424,0.00017411,-0.00303022,-0.007
 63033,-0.01610703,0.00412056,-0.11941294,-0.41232559,0.02351319,0.0047
 7257,0.00639840,-0.00022900,0.00176845,0.00047383,-0.00009560,-0.00014
 103,0.00097633,0.00086944,0.00001702,0.00032954,-0.00005075,-0.0005355
 0,-0.00081059,-0.00001976,-0.00009467,0.00000507,-0.00000751,-0.000114
 79,0.00003245,0.00006047,-0.00697781,-0.00976286,-0.00568313,0.1259336
 2,0.42701299,0.00060251,0.00021733,-0.00006284,0.00400691,-0.00197791,
 -0.00550182,-0.01315867,-0.03571775,0.00303279,0.00388948,0.02113507,-
 0.08048307,-0.00124051,-0.00105272,0.00009914,0.00008800,-0.00016604,0
 .00070278,-0.00051424,0.00107154,0.00115216,-0.00003858,-0.00000537,-0
 .00001426,-0.00087547,-0.00162641,0.00033129,-0.00010151,0.00001424,0.
 00004598,-0.00016475,0.00006047,0.00007783,0.01625350,0.03759821,0.002
 73674,-0.00813703,-0.02017048,0.07503980,-0.00165596,-0.00361940,0.001
 10113,-0.00045284,-0.00077969,-0.00018044,-0.00815796,-0.00190606,-0.0
 0255637,-0.01274232,0.02273378,0.03785221,-0.11690343,0.06469189,0.101
 70730,0.00678532,-0.00932293,-0.01592550,-0.00044528,0.00147065,0.0018
 3384,0.00014307,0.00013726,0.00000502,0.00027648,0.00020064,0.00000032
 ,0.00001283,0.00005647,0.00016812,0.00070366,-0.00053551,-0.00087547,0
 .00280830,-0.00016394,-0.00006612,0.00228203,-0.00005502,-0.00021769,0
 .11985086,-0.00445552,-0.00599579,0.00230621,-0.00077979,0.00015782,0.
 00026374,-0.00107062,0.00050916,-0.00018497,-0.00168276,0.00152096,0.0
 0227312,0.06469319,-0.16741164,-0.14886944,0.01511586,-0.01797962,-0.0
 3441608,-0.00008618,0.00033685,0.00022193,0.00013725,0.00003557,-0.000
 00718,0.00020063,0.00011931,-0.00000014,0.00002219,0.00007094,0.000173
 59,0.00102208,-0.00081061,-0.00162635,-0.00042506,0.00007037,-0.000122
 01,0.00020866,0.00057418,0.00042591,-0.06491183,0.17051931,0.00061345,
 0.00125407,0.00067596,-0.00006813,0.00009908,0.00000331,-0.00139846,-0
 .00011530,0.00067283,-0.00461582,0.00312840,0.00493544,0.10008375,-0.1
 4648987,-0.32564957,-0.00122034,0.00542041,0.00490805,0.00003926,0.000
 04870,0.00033279,0.00001987,-0.00002895,0.00001518,0.00000032,-0.00000
 014,-0.00000945,-0.00003571,0.00012846,0.00024414,-0.00005888,-0.00001
 975,0.00033124,0.00014934,0.00021180,0.00095033,-0.00007978,0.00022251
 ,0.00012497,-0.10784865,0.15786787,0.33179522,-0.00020052,0.00065179,0
 .00003559,-0.00037430,-0.00014908,0.00012120,0.00238837,-0.00073424,-0
 .00093862,-0.01334120,0.02194992,-0.03999325,-0.11523612,0.06122167,-0
 .09911362,0.00630217,-0.00997013,0.01715803,0.00023539,-0.00025723,0.0
 0001914,0.00001920,-0.00008801,0.00001491,0.00014307,0.00013725,0.0000
 1987,0.00018264,0.00001917,-0.00015241,0.00001267,0.00001702,-0.000038
 60,-0.00848353,-0.00036119,0.00173262,0.00280885,0.00011703,0.00043244
 ,0.00631651,-0.00936319,0.01495554,0.11896726,0.00027910,0.00242051,0.
 00099470,-0.00014901,-0.00025743,-0.00017792,-0.00036262,-0.00016805,0
 .00032890,-0.00226472,0.00162131,-0.00276564,0.06122042,-0.16336638,0.
 14547553,0.01422227,-0.01805181,0.03622900,-0.00007027,0.00010679,0.00
 003397,-0.00008800,0.00008817,-0.00002185,0.00013726,0.00003557,-0.000
 02895,0.00011380,-0.00009655,-0.00043952,-0.00017001,0.00032952,-0.000
 00541,-0.00120797,0.00099155,0.00027575,0.00014518,0.00070650,-0.00056
 367,-0.00933966,0.01364284,-0.02190377,-0.05998988,0.16614539,-0.00000
 737,-0.00053795,0.00088087,0.00003174,-0.00004683,-0.00010837,0.000504
 68,-0.00019049,0.00088068,0.00347579,-0.00273493,0.00448296,-0.0975890
 7,0.14324097,-0.33167953,0.00128742,-0.00425268,0.00451297,0.00002941,
 -0.00006455,-0.00001424,0.00001491,-0.00002185,-0.00004724,0.00000502,
 -0.00000718,0.00001518,-0.00010255,0.00003211,0.00018608,0.00004930,-0
 .00005073,-0.00001428,0.00128908,0.00000899,0.00079167,0.00009540,-0.0
 0022950,0.00031361,-0.01459583,0.02140929,-0.02064950,0.10580618,-0.15
 528721,0.33915968,0.00542242,-0.00885160,0.01695476,0.00117057,-0.0006
 8877,0.00015399,-0.00026197,0.00001511,-0.00002913,0.00117296,0.000266
 11,0.00065290,0.00543643,-0.00891837,0.01697290,-0.10705451,0.04213552
 ,-0.08043518,-0.00003682,-0.00001222,0.00002370,-0.00001461,0.00009630
 ,0.00000742,0.00009016,0.00002639,-0.00010669,-0.00079195,0.00231056,0
 .00248876,0.00023324,-0.00027239,-0.00083552,-0.00001519,-0.00006074,-
 0.00007494,0.00009033,0.00007270,-0.00008269,0.00023469,0.00084439,-0.
 00025180,-0.00080072,-0.00336875,-0.00048145,0.09919898,-0.00804532,0.
 01304458,-0.02587110,-0.00093457,0.00022320,0.00049030,-0.00005850,-0.
 00037399,-0.00019465,0.00166428,0.00182076,-0.00032492,0.01298903,-0.0
 1784941,0.03718353,0.04339019,-0.15019660,0.14639503,-0.00002445,0.000
 18450,0.00009977,0.00019062,0.00010031,0.00010729,-0.00000796,-0.00000
 614,0.00007997,0.00313022,-0.00291848,-0.00414096,-0.00044339,0.001481
 19,0.00082635,-0.00049040,0.00020074,-0.00008722,0.00018782,0.00015621
 ,-0.00020609,0.00058308,0.00264419,-0.00006044,-0.00421568,-0.00668882
 ,-0.00120388,-0.04506964,0.15750616,-0.01023265,0.01579567,-0.02570408
 ,-0.00137650,0.00078553,0.00170708,0.00011146,-0.00019475,-0.00010414,
 -0.00001739,-0.00061873,0.00010712,0.00077750,-0.00445415,0.00517557,-
 0.08283162,0.14639672,-0.35302961,0.00004704,0.00009975,0.00004614,0.0
 0046478,-0.00001835,0.00018648,-0.00022307,-0.00009333,0.00024390,0.00
 295121,-0.00382589,-0.00298979,-0.00039904,0.00074685,0.00211473,0.000
 10823,0.00003798,0.00008663,-0.00012058,-0.00003268,0.00008139,0.00013
 747,0.00001849,0.00095029,-0.00089196,-0.00151897,0.00078932,0.0860554
 9,-0.15161416,0.36756648,-0.00944584,-0.00127934,-0.00333308,0.0010143
 9,0.00099343,0.00151504,0.00050474,0.00012728,-0.00024501,0.00101211,-
 0.00182142,0.00004635,-0.00948941,0.00348188,-0.00084516,-0.45458615,0
 .01278534,-0.02393126,-0.00001311,-0.00000166,0.00000371,0.00023538,-0
 .00007027,0.00002941,-0.00044532,-0.00008618,0.00003925,0.00107286,-0.
 00060150,-0.00055094,0.00085283,-0.00014101,-0.00051419,0.00023572,0.0
 0001562,0.00007453,-0.00044781,0.00001778,0.00009370,0.00085389,0.0005
 0432,-0.00017729,0.00107486,0.00079655,0.00017987,-0.00408177,-0.00288
 787,0.00552094,0.47168948,0.02468351,0.00009967,0.00283109,0.00011743,
 -0.00248561,-0.00445240,0.00021972,-0.00073265,-0.00048209,-0.00039389
 ,-0.00869077,-0.00014704,-0.04532967,0.00310475,-0.00280423,0.01144913
 ,-0.07486546,0.00410129,-0.00000166,0.00032144,0.00017558,-0.00025722,
 0.00010679,-0.00006454,0.00147064,0.00033687,0.00004870,-0.00077221,0.
 00064146,0.00064263,-0.00017707,0.00097630,0.00107148,0.00013064,0.000
 01056,0.00010042,-0.00234391,0.00046330,0.00013722,0.00076826,0.002002
 31,0.00015696,0.00082417,0.00244061,-0.00017084,0.02143286,0.00068366,
 -0.00145491,-0.01180850,0.07540226,0.03805967,-0.00077773,0.00305970,0
 .00038522,-0.00445024,-0.00550460,-0.00042160,-0.00048198,-0.00006381,
 0.00012260,-0.00014847,0.00070275,0.00140304,0.00077530,0.00009864,-0.
 02137946,0.00409958,-0.08051316,0.00000371,0.00017558,0.00007801,0.000
 01916,0.00003398,-0.00001426,0.00183380,0.00022195,0.00033276,-0.00046
 586,0.00107818,0.00211484,-0.00081045,0.00086937,0.00115193,0.00022223
 ,0.00000179,0.00008166,-0.00016358,-0.00003706,0.00020886,-0.00031621,
 0.00035936,0.00012484,0.00036815,-0.00060657,0.00031365,-0.04093118,-0
 .00142374,0.00270809,0.02204708,0.00021093,0.07507397,0.00117294,0.000
 26603,0.00065297,0.00543701,-0.00891827,0.01697220,-0.10706378,0.04214
 426,-0.08045082,0.00542282,-0.00885115,0.01695410,0.00117058,-0.000688
 79,0.00015420,-0.00026196,0.00001512,-0.00002915,-0.00408362,0.0214327
 6,-0.04093053,-0.00080067,-0.00336882,-0.00048134,0.00023460,0.0008442
 7,-0.00025178,-0.00001517,-0.00006076,-0.00007494,0.00009033,0.0000726
 9,-0.00008267,-0.00079190,0.00231049,0.00248892,0.00023314,-0.00027231
 ,-0.00083538,0.00009017,0.00002637,-0.00010667,-0.00001460,0.00009632,
 0.00000746,0.00000776,0.00004255,-0.00008133,-0.00003682,-0.00001222,0
 .00002369,0.09920918,0.00166431,0.00182094,-0.00032491,0.01299078,-0.0
 1784940,0.03718364,0.04339848,-0.15019662,0.14639341,-0.00804623,0.013
 04462,-0.02587015,-0.00093456,0.00022330,0.00049031,-0.00005852,-0.000
 37400,-0.00019465,-0.00288810,0.00068410,-0.00142459,-0.00421557,-0.00
 668900,-0.00120381,0.00058303,0.00264412,-0.00006056,-0.00049041,0.000
 20072,-0.00008723,0.00018787,0.00015622,-0.00020610,0.00313009,-0.0029
 1838,-0.00414097,-0.00044335,0.00148101,0.00082645,-0.00000800,-0.0000
 0614,0.00007996,0.00019062,0.00010030,0.00010727,0.00004255,-0.0000120
 5,-0.00005506,-0.00002445,0.00018450,0.00009977,-0.04507855,0.15750578
 ,-0.00001746,-0.00061875,0.00010715,0.00077769,-0.00445374,0.00517493,
 -0.08284632,0.14639512,-0.35302219,-0.01023386,0.01579641,-0.02570477,
 -0.00137668,0.00078563,0.00170727,0.00011150,-0.00019474,-0.00010414,0
 .00552131,-0.00145581,0.00270972,-0.00089191,-0.00151884,0.00078933,0.
 00013748,0.00001853,0.00095021,0.00010823,0.00003798,0.00008664,-0.000
 12058,-0.00003269,0.00008140,0.00295115,-0.00382604,-0.00299010,-0.000
 39900,0.00074671,0.00211467,-0.00022312,-0.00009334,0.00024392,0.00046
 480,-0.00001837,0.00018650,-0.00008133,-0.00005506,0.00006442,0.000047
 04,0.00009976,0.00004613,0.08607107,-0.15161277,0.36755891\\0.00003534
 ,0.00001943,0.00005201,-0.00003607,0.00005271,-0.00001268,-0.00003024,
 -0.00002705,0.00005022,-0.00003588,-0.00001870,-0.00005021,0.00003556,
 -0.00005317,0.00001281,0.00003152,0.00002634,-0.00005156,-0.00001578,0
 .00000506,-0.00000925,0.00001454,-0.00002114,0.00000462,-0.00000104,0.
 00000201,0.00001889,-0.00001445,-0.00000790,-0.00002098,0.00000137,0.0
 0001740,-0.00000881,0.00001379,0.00000749,0.00001952,-0.00000095,-0.00
 001644,0.00000926,0.00000140,-0.00000213,-0.00001907,-0.00001456,0.000
 02148,-0.00000468,-0.00001251,-0.00001061,0.00002077,0.00001637,-0.000
 00488,0.00000861,0.00001160,0.00001010,-0.00001947\\\@


 ... SUBJECTS WHICH DISCLOSE THEIR FULL POWER, MEANING AND BEAUTY AS SOON
 AS THEY ARE PRESENTED TO THE MIND HAVE VERY LITTLE OF THOSE QUALITIES
 TO DISCLOSE.
                           -- CHARLES DUTTON (1882)
 Job cpu time:       0 days  0 hours  0 minutes  2.1 seconds.
 File lengths (MBytes):  RWF=      8 Int=      0 D2E=      0 Chk=      2 Scr=      1
 Normal termination of Gaussian 09 at Wed Feb 19 02:28:24 2025.
