 Entering Gaussian System, Link 0=g09
 Input=/home/mayank/Desktop/software/gaussian/Gview_and_Gaussian/g09/scratch/Q1/2/ch4.com
 Output=/home/mayank/Desktop/software/gaussian/Gview_and_Gaussian/g09/scratch/Q1/2/ch4.log
 Initial command:
 /home/mayank/Desktop/software/gaussian/Gview_and_Gaussian/g09/l1.exe "/home/mayank/Desktop/software/gaussian/Gview_and_Gaussian/g09/scratch/Gau-74126.inp" -scrdir="/home/mayank/Desktop/software/gaussian/Gview_and_Gaussian/g09/scratch/"
 Entering Link 1 = /home/mayank/Desktop/software/gaussian/Gview_and_Gaussian/g09/l1.exe PID=     74129.
  
 Copyright (c) 1988,1990,1992,1993,1995,1998,2003,2009,2013,
            Gaussian, Inc.  All Rights Reserved.
  
 This is part of the Gaussian(R) 09 program.  It is based on
 the Gaussian(R) 03 system (copyright 2003, Gaussian, Inc.),
 the Gaussian(R) 98 system (copyright 1998, Gaussian, Inc.),
 the Gaussian(R) 94 system (copyright 1995, Gaussian, Inc.),
 the Gaussian 92(TM) system (copyright 1992, Gaussian, Inc.),
 the Gaussian 90(TM) system (copyright 1990, Gaussian, Inc.),
 the Gaussian 88(TM) system (copyright 1988, Gaussian, Inc.),
 the Gaussian 86(TM) system (copyright 1986, Carnegie Mellon
 University), and the Gaussian 82(TM) system (copyright 1983,
 Carnegie Mellon University). Gaussian is a federally registered
 trademark of Gaussian, Inc.
  
 This software contains proprietary and confidential information,
 including trade secrets, belonging to Gaussian, Inc.
  
 This software is provided under written license and may be
 used, copied, transmitted, or stored only in accord with that
 written license.
  
 The following legend is applicable only to US Government
 contracts under FAR:
  
                    RESTRICTED RIGHTS LEGEND
  
 Use, reproduction and disclosure by the US Government is
 subject to restrictions as set forth in subparagraphs (a)
 and (c) of the Commercial Computer Software - Restricted
 Rights clause in FAR 52.227-19.
  
 Gaussian, Inc.
 340 Quinnipiac St., Bldg. 40, Wallingford CT 06492
  
  
 ---------------------------------------------------------------
 Warning -- This program may not be used in any manner that
 competes with the business of Gaussian, Inc. or will provide
 assistance to any competitor of Gaussian, Inc.  The licensee
 of this program is prohibited from giving any competitor of
 Gaussian, Inc. access to this program.  By using this program,
 the user acknowledges that Gaussian, Inc. is engaged in the
 business of creating and licensing software in the field of
 computational chemistry and represents and warrants to the
 licensee that it is not a competitor of Gaussian, Inc. and that
 it will not use this program in any manner prohibited above.
 ---------------------------------------------------------------
  

 Cite this work as:
 Gaussian 09, Revision D.01,
 M. J. Frisch, G. W. Trucks, H. B. Schlegel, G. E. Scuseria, 
 M. A. Robb, J. R. Cheeseman, G. Scalmani, V. Barone, B. Mennucci, 
 G. A. Petersson, H. Nakatsuji, M. Caricato, X. Li, H. P. Hratchian, 
 A. F. Izmaylov, J. Bloino, G. Zheng, J. L. Sonnenberg, M. Hada, 
 M. Ehara, K. Toyota, R. Fukuda, J. Hasegawa, M. Ishida, T. Nakajima, 
 Y. Honda, O. Kitao, H. Nakai, T. Vreven, J. A. Montgomery, Jr., 
 J. E. Peralta, F. Ogliaro, M. Bearpark, J. J. Heyd, E. Brothers, 
 K. N. Kudin, V. N. Staroverov, T. Keith, R. Kobayashi, J. Normand, 
 K. Raghavachari, A. Rendell, J. C. Burant, S. S. Iyengar, J. Tomasi, 
 M. Cossi, N. Rega, J. M. Millam, M. Klene, J. E. Knox, J. B. Cross, 
 V. Bakken, C. Adamo, J. Jaramillo, R. Gomperts, R. E. Stratmann, 
 O. Yazyev, A. J. Austin, R. Cammi, C. Pomelli, J. W. Ochterski, 
 R. L. Martin, K. Morokuma, V. G. Zakrzewski, G. A. Voth, 
 P. Salvador, J. J. Dannenberg, S. Dapprich, A. D. Daniels, 
 O. Farkas, J. B. Foresman, J. V. Ortiz, J. Cioslowski, 
 and D. J. Fox, Gaussian, Inc., Wallingford CT, 2013.
 
 ******************************************
 Gaussian 09:  AM64L-G09RevD.01 24-Apr-2013
                19-Feb-2025 
 ******************************************
 %chk=ch4.chk
 --------------------------------------
 # opt freq hf/sto-3g geom=connectivity
 --------------------------------------
 1/18=20,19=15,38=1,57=2/1,3;
 2/9=110,12=2,17=6,18=5,40=1/2;
 3/6=3,11=9,16=1,25=1,30=1,71=1/1,2,3;
 4//1;
 5/5=2,38=5/2;
 6/7=2,8=2,9=2,10=2,28=1/1;
 7//1,2,3,16;
 1/18=20,19=15/3(2);
 2/9=110/2;
 99//99;
 2/9=110/2;
 3/6=3,11=9,16=1,25=1,30=1,71=1/1,2,3;
 4/5=5,16=3,69=1/1;
 5/5=2,38=5/2;
 7//1,2,3,16;
 1/18=20,19=15/3(-5);
 2/9=110/2;
 6/7=2,8=2,9=2,10=2,19=2,28=1/1;
 99/9=1/99;
 -------------------
 Title Card Required
 -------------------
 Symbolic Z-matrix:
 Charge =  0 Multiplicity = 1
 C                    -0.48048   1.24625   0. 
 H                    -0.12383   0.23744   0. 
 H                    -0.12381   1.75064   0.87365 
 H                    -0.12381   1.75064  -0.87365 
 H                    -1.55048   1.24626   0. 
 

 GradGradGradGradGradGradGradGradGradGradGradGradGradGradGradGradGradGrad
 Berny optimization.
 Initialization pass.
                           ----------------------------
                           !    Initial Parameters    !
                           ! (Angstroms and Degrees)  !
 --------------------------                            --------------------------
 ! Name  Definition              Value          Derivative Info.                !
 --------------------------------------------------------------------------------
 ! R1    R(1,2)                  1.07           estimate D2E/DX2                !
 ! R2    R(1,3)                  1.07           estimate D2E/DX2                !
 ! R3    R(1,4)                  1.07           estimate D2E/DX2                !
 ! R4    R(1,5)                  1.07           estimate D2E/DX2                !
 ! A1    A(2,1,3)              109.4712         estimate D2E/DX2                !
 ! A2    A(2,1,4)              109.4712         estimate D2E/DX2                !
 ! A3    A(2,1,5)              109.4712         estimate D2E/DX2                !
 ! A4    A(3,1,4)              109.4713         estimate D2E/DX2                !
 ! A5    A(3,1,5)              109.4712         estimate D2E/DX2                !
 ! A6    A(4,1,5)              109.4712         estimate D2E/DX2                !
 ! D1    D(2,1,4,3)           -120.0            estimate D2E/DX2                !
 ! D2    D(2,1,5,3)            120.0            estimate D2E/DX2                !
 ! D3    D(2,1,5,4)           -120.0            estimate D2E/DX2                !
 ! D4    D(3,1,5,4)            120.0            estimate D2E/DX2                !
 --------------------------------------------------------------------------------
 Trust Radius=3.00D-01 FncErr=1.00D-07 GrdErr=1.00D-07
 Number of steps in this run=     24 maximum allowed number of steps=    100.
 GradGradGradGradGradGradGradGradGradGradGradGradGradGradGradGradGradGrad

                          Input orientation:                          
 ---------------------------------------------------------------------
 Center     Atomic      Atomic             Coordinates (Angstroms)
 Number     Number       Type             X           Y           Z
 ---------------------------------------------------------------------
      1          6           0       -0.480480    1.246246    0.000000
      2          1           0       -0.123826    0.237436    0.000000
      3          1           0       -0.123808    1.750644    0.873652
      4          1           0       -0.123808    1.750644   -0.873652
      5          1           0       -1.550480    1.246259    0.000000
 ---------------------------------------------------------------------
                    Distance matrix (angstroms):
                    1          2          3          4          5
     1  C    0.000000
     2  H    1.070000   0.000000
     3  H    1.070000   1.747302   0.000000
     4  H    1.070000   1.747302   1.747303   0.000000
     5  H    1.070000   1.747303   1.747303   1.747303   0.000000
 Stoichiometry    CH4
 Framework group  T[O(C),4C3(H)]
 Deg. of freedom     1
 Full point group                 T       NOp  12
 Largest Abelian subgroup         D2      NOp   4
 Largest concise Abelian subgroup D2      NOp   4
                         Standard orientation:                         
 ---------------------------------------------------------------------
 Center     Atomic      Atomic             Coordinates (Angstroms)
 Number     Number       Type             X           Y           Z
 ---------------------------------------------------------------------
      1          6           0        0.000000    0.000000    0.000000
      2          1           0        0.617765    0.617765    0.617765
      3          1           0       -0.617765   -0.617765    0.617765
      4          1           0       -0.617765    0.617765   -0.617765
      5          1           0        0.617765   -0.617765   -0.617765
 ---------------------------------------------------------------------
 Rotational constants (GHZ):    164.2463794    164.2463794    164.2463794
 Standard basis: STO-3G (5D, 7F)
 There are     3 symmetry adapted cartesian basis functions of A   symmetry.
 There are     2 symmetry adapted cartesian basis functions of B1  symmetry.
 There are     2 symmetry adapted cartesian basis functions of B2  symmetry.
 There are     2 symmetry adapted cartesian basis functions of B3  symmetry.
 There are     3 symmetry adapted basis functions of A   symmetry.
 There are     2 symmetry adapted basis functions of B1  symmetry.
 There are     2 symmetry adapted basis functions of B2  symmetry.
 There are     2 symmetry adapted basis functions of B3  symmetry.
     9 basis functions,    27 primitive gaussians,     9 cartesian basis functions
     5 alpha electrons        5 beta electrons
       nuclear repulsion energy        13.6865185901 Hartrees.
 NAtoms=    5 NActive=    5 NUniq=    2 SFac= 4.00D+00 NAtFMM=   60 NAOKFM=F Big=F
 Integral buffers will be    131072 words long.
 Raffenetti 1 integral format.
 Two-electron integral symmetry is turned on.
 One-electron integrals computed using PRISM.
 NBasis=     9 RedAO= T EigKep=  1.95D-01  NBF=     3     2     2     2
 NBsUse=     9 1.00D-06 EigRej= -1.00D+00 NBFU=     3     2     2     2
 ExpMin= 1.69D-01 ExpMax= 7.16D+01 ExpMxC= 7.16D+01 IAcc=1 IRadAn=         1 AccDes= 0.00D+00
 Harris functional with IExCor=  205 and IRadAn=       1 diagonalized for initial guess.
 HarFok:  IExCor=  205 AccDes= 0.00D+00 IRadAn=         1 IDoV= 1 UseB2=F ITyADJ=14
 ICtDFT=  3500011 ScaDFX=  1.000000  1.000000  1.000000  1.000000
 FoFCou: FMM=F IPFlag=           0 FMFlag=      100000 FMFlg1=           0
         NFxFlg=           0 DoJE=T BraDBF=F KetDBF=T FulRan=T
         wScrn=  0.000000 ICntrl=     500 IOpCl=  0 I1Cent=   200000004 NGrid=           0
         NMat0=    1 NMatS0=      1 NMatT0=    0 NMatD0=    1 NMtDS0=    0 NMtDT0=    0
 Petite list used in FoFCou.
 Initial guess orbital symmetries:
       Occupied  (A) (A) (T) (T) (T)
       Virtual   (T) (T) (T) (A)
 The electronic state of the initial guess is 1-A.
 Keep R1 ints in memory in symmetry-blocked form, NReq=825403.
 Requested convergence on RMS density matrix=1.00D-08 within 128 cycles.
 Requested convergence on MAX density matrix=1.00D-06.
 Requested convergence on             energy=1.00D-06.
 No special actions if energy rises.
 SCF Done:  E(RHF) =  -39.7262784142     A.U. after    6 cycles
            NFock=  6  Conv=0.30D-09     -V/T= 2.0055

 **********************************************************************

            Population analysis using the SCF density.

 **********************************************************************

 Orbital symmetries:
       Occupied  (A) (A) (T) (T) (T)
       Virtual   (T) (T) (T) (A)
 The electronic state is 1-A.
 Alpha  occ. eigenvalues --  -11.02864  -0.91891  -0.52570  -0.52570  -0.52570
 Alpha virt. eigenvalues --    0.73092   0.73092   0.73092   0.78108
          Condensed to atoms (all electrons):
               1          2          3          4          5
     1  C    4.723041   0.388607   0.388607   0.388607   0.388607
     2  H    0.388607   0.603069  -0.020348  -0.020348  -0.020348
     3  H    0.388607  -0.020348   0.603069  -0.020348  -0.020348
     4  H    0.388607  -0.020348  -0.020348   0.603069  -0.020348
     5  H    0.388607  -0.020348  -0.020348  -0.020348   0.603069
 Mulliken charges:
               1
     1  C   -0.277469
     2  H    0.069367
     3  H    0.069367
     4  H    0.069367
     5  H    0.069367
 Sum of Mulliken charges =   0.00000
 Mulliken charges with hydrogens summed into heavy atoms:
               1
     1  C    0.000000
 Electronic spatial extent (au):  <R**2>=             33.8386
 Charge=              0.0000 electrons
 Dipole moment (field-independent basis, Debye):
    X=              0.0000    Y=              0.0000    Z=              0.0000  Tot=              0.0000
 Quadrupole moment (field-independent basis, Debye-Ang):
   XX=             -7.8391   YY=             -7.8391   ZZ=             -7.8391
   XY=              0.0000   XZ=              0.0000   YZ=              0.0000
 Traceless Quadrupole moment (field-independent basis, Debye-Ang):
   XX=              0.0000   YY=              0.0000   ZZ=              0.0000
   XY=              0.0000   XZ=              0.0000   YZ=              0.0000
 Octapole moment (field-independent basis, Debye-Ang**2):
  XXX=              0.0000  YYY=              0.0000  ZZZ=              0.0000  XYY=              0.0000
  XXY=              0.0000  XXZ=              0.0000  XZZ=              0.0000  YZZ=              0.0000
  YYZ=              0.0000  XYZ=              0.5582
 Hexadecapole moment (field-independent basis, Debye-Ang**3):
 XXXX=            -13.5073 YYYY=            -13.5073 ZZZZ=            -13.5073 XXXY=              0.0000
 XXXZ=              0.0000 YYYX=              0.0000 YYYZ=              0.0000 ZZZX=              0.0000
 ZZZY=              0.0000 XXYY=             -4.1397 XXZZ=             -4.1397 YYZZ=             -4.1397
 XXYZ=              0.0000 YYXZ=              0.0000 ZZXY=              0.0000
 N-N= 1.368651859005D+01 E-N=-1.192834591603D+02  KE= 3.950712920350D+01
 Symmetry A    KE= 3.364177870657D+01
 Symmetry B1   KE= 1.955116832309D+00
 Symmetry B2   KE= 1.955116832309D+00
 Symmetry B3   KE= 1.955116832309D+00
 Calling FoFJK, ICntrl=      2127 FMM=F ISym2X=1 I1Cent= 0 IOpClX= 0 NMat=1 NMatS=1 NMatT=0.
 ***** Axes restored to original set *****
 -------------------------------------------------------------------
 Center     Atomic                   Forces (Hartrees/Bohr)
 Number     Number              X              Y              Z
 -------------------------------------------------------------------
      1        6           0.000000000    0.000000000    0.000000000
      2        1           0.004008781   -0.011338982   -0.000000010
      3        1           0.004008995    0.005669412    0.009819804
      4        1           0.004008979    0.005669424   -0.009819804
      5        1          -0.012026755    0.000000146    0.000000010
 -------------------------------------------------------------------
 Cartesian Forces:  Max     0.012026755 RMS     0.006210590

 GradGradGradGradGradGradGradGradGradGradGradGradGradGradGradGradGradGrad
 Berny optimization.
 FormGI is forming the generalized inverse of G from B-inverse, IUseBI=4.
 Internal  Forces:  Max     0.012026755 RMS     0.006428571
 Search for a local minimum.
 Step number   1 out of a maximum of   24
 All quantities printed in internal units (Hartrees-Bohrs-Radians)
 Mixed Optimization -- RFO/linear search
 Second derivative matrix not updated -- first step.
 The second derivative matrix:
                          R1        R2        R3        R4        A1
           R1           0.37230
           R2           0.00000   0.37230
           R3           0.00000   0.00000   0.37230
           R4           0.00000   0.00000   0.00000   0.37230
           A1           0.00000   0.00000   0.00000   0.00000   0.16000
           A2           0.00000   0.00000   0.00000   0.00000   0.00000
           A3           0.00000   0.00000   0.00000   0.00000   0.00000
           A4           0.00000   0.00000   0.00000   0.00000   0.00000
           A5           0.00000   0.00000   0.00000   0.00000   0.00000
           A6           0.00000   0.00000   0.00000   0.00000   0.00000
           D1           0.00000   0.00000   0.00000   0.00000   0.00000
           D2           0.00000   0.00000   0.00000   0.00000   0.00000
           D3           0.00000   0.00000   0.00000   0.00000   0.00000
           D4           0.00000   0.00000   0.00000   0.00000   0.00000
                          A2        A3        A4        A5        A6
           A2           0.16000
           A3           0.00000   0.16000
           A4           0.00000   0.00000   0.16000
           A5           0.00000   0.00000   0.00000   0.16000
           A6           0.00000   0.00000   0.00000   0.00000   0.16000
           D1           0.00000   0.00000   0.00000   0.00000   0.00000
           D2           0.00000   0.00000   0.00000   0.00000   0.00000
           D3           0.00000   0.00000   0.00000   0.00000   0.00000
           D4           0.00000   0.00000   0.00000   0.00000   0.00000
                          D1        D2        D3        D4
           D1           0.00499
           D2           0.00000   0.00499
           D3           0.00000   0.00000   0.00499
           D4           0.00000   0.00000   0.00000   0.00499
 ITU=  0
     Eigenvalues ---    0.05269   0.05891   0.08766   0.16000   0.16000
     Eigenvalues ---    0.37230   0.37230   0.37230   0.37230
 RFO step:  Lambda=-1.54760835D-03 EMin= 5.26881010D-02
 Linear search not attempted -- first point.
 Iteration  1 RMS(Cart)=  0.01719565 RMS(Int)=  0.00000000
 Iteration  2 RMS(Cart)=  0.00000000 RMS(Int)=  0.00000000
 ClnCor:  largest displacement from symmetrization is 1.09D-14 for atom     4.
 Variable       Old X    -DE/DX   Delta X   Delta X   Delta X     New X
                                 (Linear)    (Quad)   (Total)
    R1        2.02201   0.01203   0.00000   0.03217   0.03217   2.05418
    R2        2.02201   0.01203   0.00000   0.03217   0.03217   2.05418
    R3        2.02201   0.01203   0.00000   0.03217   0.03217   2.05418
    R4        2.02201   0.01203   0.00000   0.03217   0.03217   2.05418
    A1        1.91063   0.00000   0.00000   0.00000   0.00000   1.91063
    A2        1.91063   0.00000   0.00000   0.00000   0.00000   1.91063
    A3        1.91063   0.00000   0.00000   0.00000   0.00000   1.91063
    A4        1.91063   0.00000   0.00000   0.00000   0.00000   1.91063
    A5        1.91063   0.00000   0.00000   0.00000   0.00000   1.91063
    A6        1.91063   0.00000   0.00000   0.00000   0.00000   1.91063
    D1       -2.09440   0.00000   0.00000   0.00000   0.00000  -2.09440
    D2        2.09440   0.00000   0.00000   0.00000   0.00000   2.09440
    D3       -2.09440   0.00000   0.00000   0.00000   0.00000  -2.09440
    D4        2.09440   0.00000   0.00000   0.00000   0.00000   2.09440
         Item               Value     Threshold  Converged?
 Maximum Force            0.012027     0.000450     NO 
 RMS     Force            0.006429     0.000300     NO 
 Maximum Displacement     0.032170     0.001800     NO 
 RMS     Displacement     0.017196     0.001200     NO 
 Predicted change in Energy=-7.770074D-04
 GradGradGradGradGradGradGradGradGradGradGradGradGradGradGradGradGradGrad

                          Input orientation:                          
 ---------------------------------------------------------------------
 Center     Atomic      Atomic             Coordinates (Angstroms)
 Number     Number       Type             X           Y           Z
 ---------------------------------------------------------------------
      1          6           0       -0.480480    1.246246    0.000000
      2          1           0       -0.118152    0.221386   -0.000001
      3          1           0       -0.118132    1.758669    0.887551
      4          1           0       -0.118134    1.758670   -0.887551
      5          1           0       -1.567504    1.246259    0.000001
 ---------------------------------------------------------------------
                    Distance matrix (angstroms):
                    1          2          3          4          5
     1  C    0.000000
     2  H    1.087024   0.000000
     3  H    1.087024   1.775102   0.000000
     4  H    1.087024   1.775102   1.775102   0.000000
     5  H    1.087024   1.775102   1.775102   1.775102   0.000000
 Stoichiometry    CH4
 Framework group  TD[O(C),4C3(H)]
 Deg. of freedom     1
 Full point group                 TD      NOp  24
 Omega: Change in point group or standard orientation.

 Old FWG=T    [O(C1),4C3(H1)]
 New FWG=TD   [O(C1),4C3(H1)]
 Largest Abelian subgroup         D2      NOp   4
 Largest concise Abelian subgroup D2      NOp   4
                         Standard orientation:                         
 ---------------------------------------------------------------------
 Center     Atomic      Atomic             Coordinates (Angstroms)
 Number     Number       Type             X           Y           Z
 ---------------------------------------------------------------------
      1          6           0        0.000000    0.000000    0.000000
      2          1           0        0.627593    0.627593    0.627593
      3          1           0       -0.627593   -0.627593    0.627593
      4          1           0       -0.627593    0.627593   -0.627593
      5          1           0        0.627593   -0.627593   -0.627593
 ---------------------------------------------------------------------
 Rotational constants (GHZ):    159.1421941    159.1421941    159.1421941
 Standard basis: STO-3G (5D, 7F)
 There are     3 symmetry adapted cartesian basis functions of A   symmetry.
 There are     2 symmetry adapted cartesian basis functions of B1  symmetry.
 There are     2 symmetry adapted cartesian basis functions of B2  symmetry.
 There are     2 symmetry adapted cartesian basis functions of B3  symmetry.
 There are     3 symmetry adapted basis functions of A   symmetry.
 There are     2 symmetry adapted basis functions of B1  symmetry.
 There are     2 symmetry adapted basis functions of B2  symmetry.
 There are     2 symmetry adapted basis functions of B3  symmetry.
     9 basis functions,    27 primitive gaussians,     9 cartesian basis functions
     5 alpha electrons        5 beta electrons
       nuclear repulsion energy        13.4721763763 Hartrees.
 NAtoms=    5 NActive=    5 NUniq=    2 SFac= 4.00D+00 NAtFMM=   60 NAOKFM=F Big=F
 Integral buffers will be    131072 words long.
 Raffenetti 1 integral format.
 Two-electron integral symmetry is turned on.
 One-electron integrals computed using PRISM.
 NBasis=     9 RedAO= T EigKep=  2.03D-01  NBF=     3     2     2     2
 NBsUse=     9 1.00D-06 EigRej= -1.00D+00 NBFU=     3     2     2     2
 Initial guess from the checkpoint file:  "ch4.chk"
 B after Tr=     0.000000    0.000000    0.000000
         Rot=    1.000000    0.000000    0.000000    0.000000 Ang=   0.00 deg.
 Initial guess orbital symmetries:
       Occupied  (A1) (A1) (T2) (T2) (T2)
       Virtual   (A1) (T2) (T2) (T2)
 ExpMin= 1.69D-01 ExpMax= 7.16D+01 ExpMxC= 7.16D+01 IAcc=1 IRadAn=         1 AccDes= 0.00D+00
 Harris functional with IExCor=  205 and IRadAn=       1 diagonalized for initial guess.
 HarFok:  IExCor=  205 AccDes= 0.00D+00 IRadAn=         1 IDoV= 1 UseB2=F ITyADJ=14
 ICtDFT=  3500011 ScaDFX=  1.000000  1.000000  1.000000  1.000000
 FoFCou: FMM=F IPFlag=           0 FMFlag=      100000 FMFlg1=           0
         NFxFlg=           0 DoJE=T BraDBF=F KetDBF=T FulRan=T
         wScrn=  0.000000 ICntrl=     500 IOpCl=  0 I1Cent=   200000004 NGrid=           0
         NMat0=    1 NMatS0=      1 NMatT0=    0 NMatD0=    1 NMtDS0=    0 NMtDT0=    0
 Petite list used in FoFCou.
 Keep R1 ints in memory in symmetry-blocked form, NReq=825475.
 Requested convergence on RMS density matrix=1.00D-08 within 128 cycles.
 Requested convergence on MAX density matrix=1.00D-06.
 Requested convergence on             energy=1.00D-06.
 No special actions if energy rises.
 SCF Done:  E(RHF) =  -39.7268094775     A.U. after    5 cycles
            NFock=  5  Conv=0.11D-09     -V/T= 2.0069
 Calling FoFJK, ICntrl=      2127 FMM=F ISym2X=1 I1Cent= 0 IOpClX= 0 NMat=1 NMatS=1 NMatT=0.
 ***** Axes restored to original set *****
 -------------------------------------------------------------------
 Center     Atomic                   Forces (Hartrees/Bohr)
 Number     Number              X              Y              Z
 -------------------------------------------------------------------
      1        6           0.000000000    0.000000000    0.000000000
      2        1          -0.001187255    0.003358193    0.000000003
      3        1          -0.001187318   -0.001679073   -0.002908268
      4        1          -0.001187313   -0.001679077    0.002908268
      5        1           0.003561886   -0.000000043   -0.000000003
 -------------------------------------------------------------------
 Cartesian Forces:  Max     0.003561886 RMS     0.001839350

 GradGradGradGradGradGradGradGradGradGradGradGradGradGradGradGradGradGrad
 Berny optimization.
 Using GEDIIS/GDIIS optimizer.
 FormGI is forming the generalized inverse of G from B-inverse, IUseBI=4.
 Internal  Forces:  Max     0.003561886 RMS     0.001903908
 Search for a local minimum.
 Step number   2 out of a maximum of   24
 All quantities printed in internal units (Hartrees-Bohrs-Radians)
 Mixed Optimization -- RFO/linear search
 Update second derivatives using D2CorX and points    1    2
 DE= -5.31D-04 DEPred=-7.77D-04 R= 6.83D-01
 TightC=F SS=  1.41D+00  RLast= 6.43D-02 DXNew= 5.0454D-01 1.9302D-01
 Trust test= 6.83D-01 RLast= 6.43D-02 DXMaxT set to 3.00D-01
 The second derivative matrix:
                          R1        R2        R3        R4        A1
           R1           0.40037
           R2           0.02807   0.40037
           R3           0.02807   0.02807   0.40037
           R4           0.02807   0.02807   0.02807   0.40037
           A1           0.00000   0.00000   0.00000   0.00000   0.16000
           A2           0.00000   0.00000   0.00000   0.00000   0.00000
           A3           0.00000   0.00000   0.00000   0.00000   0.00000
           A4           0.00000   0.00000   0.00000   0.00000   0.00000
           A5           0.00000   0.00000   0.00000   0.00000   0.00000
           A6           0.00000   0.00000   0.00000   0.00000   0.00000
           D1           0.00000   0.00000   0.00000   0.00000   0.00000
           D2           0.00000   0.00000   0.00000   0.00000   0.00000
           D3           0.00000   0.00000   0.00000   0.00000   0.00000
           D4           0.00000   0.00000   0.00000   0.00000   0.00000
                          A2        A3        A4        A5        A6
           A2           0.16000
           A3           0.00000   0.16000
           A4           0.00000   0.00000   0.16000
           A5           0.00000   0.00000   0.00000   0.16000
           A6           0.00000   0.00000   0.00000   0.00000   0.16000
           D1           0.00000   0.00000   0.00000   0.00000   0.00000
           D2           0.00000   0.00000   0.00000   0.00000   0.00000
           D3           0.00000   0.00000   0.00000   0.00000   0.00000
           D4           0.00000   0.00000   0.00000   0.00000   0.00000
                          D1        D2        D3        D4
           D1           0.00499
           D2           0.00000   0.00499
           D3           0.00000   0.00000   0.00499
           D4           0.00000   0.00000   0.00000   0.00499
 ITU=  1  0
 Use linear search instead of GDIIS.
     Eigenvalues ---    0.05269   0.05891   0.08766   0.16000   0.16000
     Eigenvalues ---    0.37230   0.37230   0.37230   0.48457
 RFO step:  Lambda= 0.00000000D+00 EMin= 5.26881010D-02
 Quartic linear search produced a step of -0.23578.
 Iteration  1 RMS(Cart)=  0.00405437 RMS(Int)=  0.00000000
 Iteration  2 RMS(Cart)=  0.00000000 RMS(Int)=  0.00000000
 ClnCor:  largest displacement from symmetrization is 2.44D-14 for atom     3.
 Variable       Old X    -DE/DX   Delta X   Delta X   Delta X     New X
                                 (Linear)    (Quad)   (Total)
    R1        2.05418  -0.00356  -0.00759   0.00000  -0.00759   2.04659
    R2        2.05418  -0.00356  -0.00759   0.00000  -0.00759   2.04659
    R3        2.05418  -0.00356  -0.00759   0.00000  -0.00759   2.04659
    R4        2.05418  -0.00356  -0.00759   0.00000  -0.00759   2.04659
    A1        1.91063   0.00000   0.00000   0.00000   0.00000   1.91063
    A2        1.91063   0.00000   0.00000   0.00000   0.00000   1.91063
    A3        1.91063   0.00000   0.00000   0.00000   0.00000   1.91063
    A4        1.91063   0.00000   0.00000   0.00000   0.00000   1.91063
    A5        1.91063   0.00000   0.00000   0.00000   0.00000   1.91063
    A6        1.91063   0.00000   0.00000   0.00000   0.00000   1.91063
    D1       -2.09440   0.00000   0.00000   0.00000   0.00000  -2.09440
    D2        2.09440   0.00000   0.00000   0.00000   0.00000   2.09440
    D3       -2.09440   0.00000   0.00000   0.00000   0.00000  -2.09440
    D4        2.09440   0.00000   0.00000   0.00000   0.00000   2.09440
         Item               Value     Threshold  Converged?
 Maximum Force            0.003562     0.000450     NO 
 RMS     Force            0.001904     0.000300     NO 
 Maximum Displacement     0.007585     0.001800     NO 
 RMS     Displacement     0.004054     0.001200     NO 
 Predicted change in Energy=-5.231094D-05
 GradGradGradGradGradGradGradGradGradGradGradGradGradGradGradGradGradGrad

                          Input orientation:                          
 ---------------------------------------------------------------------
 Center     Atomic      Atomic             Coordinates (Angstroms)
 Number     Number       Type             X           Y           Z
 ---------------------------------------------------------------------
      1          6           0       -0.480480    1.246246    0.000000
      2          1           0       -0.119490    0.225170   -0.000001
      3          1           0       -0.119470    1.756777    0.884274
      4          1           0       -0.119472    1.756778   -0.884274
      5          1           0       -1.563490    1.246259    0.000001
 ---------------------------------------------------------------------
                    Distance matrix (angstroms):
                    1          2          3          4          5
     1  C    0.000000
     2  H    1.083010   0.000000
     3  H    1.083010   1.768548   0.000000
     4  H    1.083010   1.768548   1.768548   0.000000
     5  H    1.083010   1.768548   1.768548   1.768548   0.000000
 Stoichiometry    CH4
 Framework group  TD[O(C),4C3(H)]
 Deg. of freedom     1
 Full point group                 TD      NOp  24
 Largest Abelian subgroup         D2      NOp   4
 Largest concise Abelian subgroup D2      NOp   4
                         Standard orientation:                         
 ---------------------------------------------------------------------
 Center     Atomic      Atomic             Coordinates (Angstroms)
 Number     Number       Type             X           Y           Z
 ---------------------------------------------------------------------
      1          6           0        0.000000    0.000000    0.000000
      2          1           0        0.625276    0.625276    0.625276
      3          1           0       -0.625276   -0.625276    0.625276
      4          1           0       -0.625276    0.625276   -0.625276
      5          1           0        0.625276   -0.625276   -0.625276
 ---------------------------------------------------------------------
 Rotational constants (GHZ):    160.3239991    160.3239991    160.3239991
 Standard basis: STO-3G (5D, 7F)
 There are     3 symmetry adapted cartesian basis functions of A   symmetry.
 There are     2 symmetry adapted cartesian basis functions of B1  symmetry.
 There are     2 symmetry adapted cartesian basis functions of B2  symmetry.
 There are     2 symmetry adapted cartesian basis functions of B3  symmetry.
 There are     3 symmetry adapted basis functions of A   symmetry.
 There are     2 symmetry adapted basis functions of B1  symmetry.
 There are     2 symmetry adapted basis functions of B2  symmetry.
 There are     2 symmetry adapted basis functions of B3  symmetry.
     9 basis functions,    27 primitive gaussians,     9 cartesian basis functions
     5 alpha electrons        5 beta electrons
       nuclear repulsion energy        13.5221066802 Hartrees.
 NAtoms=    5 NActive=    5 NUniq=    2 SFac= 4.00D+00 NAtFMM=   60 NAOKFM=F Big=F
 Integral buffers will be    131072 words long.
 Raffenetti 1 integral format.
 Two-electron integral symmetry is turned on.
 One-electron integrals computed using PRISM.
 NBasis=     9 RedAO= T EigKep=  2.01D-01  NBF=     3     2     2     2
 NBsUse=     9 1.00D-06 EigRej= -1.00D+00 NBFU=     3     2     2     2
 Initial guess from the checkpoint file:  "ch4.chk"
 B after Tr=     0.000000    0.000000    0.000000
         Rot=    1.000000    0.000000    0.000000    0.000000 Ang=   0.00 deg.
 Initial guess orbital symmetries:
       Occupied  (A1) (A1) (T2) (T2) (T2)
       Virtual   (A1) (T2) (T2) (T2)
 Keep R1 ints in memory in symmetry-blocked form, NReq=825475.
 Requested convergence on RMS density matrix=1.00D-08 within 128 cycles.
 Requested convergence on MAX density matrix=1.00D-06.
 Requested convergence on             energy=1.00D-06.
 No special actions if energy rises.
 SCF Done:  E(RHF) =  -39.7268636774     A.U. after    5 cycles
            NFock=  5  Conv=0.57D-11     -V/T= 2.0066
 Calling FoFJK, ICntrl=      2127 FMM=F ISym2X=1 I1Cent= 0 IOpClX= 0 NMat=1 NMatS=1 NMatT=0.
 ***** Axes restored to original set *****
 -------------------------------------------------------------------
 Center     Atomic                   Forces (Hartrees/Bohr)
 Number     Number              X              Y              Z
 -------------------------------------------------------------------
      1        6           0.000000000    0.000000000    0.000000000
      2        1           0.000000142   -0.000000401    0.000000000
      3        1           0.000000142    0.000000200    0.000000347
      4        1           0.000000142    0.000000200   -0.000000347
      5        1          -0.000000425    0.000000000    0.000000000
 -------------------------------------------------------------------
 Cartesian Forces:  Max     0.000000425 RMS     0.000000219

 GradGradGradGradGradGradGradGradGradGradGradGradGradGradGradGradGradGrad
 Berny optimization.
 Using GEDIIS/GDIIS optimizer.
 FormGI is forming the generalized inverse of G from B-inverse, IUseBI=4.
 Internal  Forces:  Max     0.000000425 RMS     0.000000227
 Search for a local minimum.
 Step number   3 out of a maximum of   24
 All quantities printed in internal units (Hartrees-Bohrs-Radians)
 Mixed Optimization -- En-DIIS/RFO-DIIS
 Update second derivatives using D2CorX and points    1    2    3
 DE= -5.42D-05 DEPred=-5.23D-05 R= 1.04D+00
 TightC=F SS=  1.41D+00  RLast= 1.52D-02 DXNew= 5.0454D-01 4.5510D-02
 Trust test= 1.04D+00 RLast= 1.52D-02 DXMaxT set to 3.00D-01
 The second derivative matrix:
                          R1        R2        R3        R4        A1
           R1           0.39664
           R2           0.02434   0.39664
           R3           0.02434   0.02434   0.39664
           R4           0.02434   0.02434   0.02434   0.39664
           A1           0.00000   0.00000   0.00000   0.00000   0.16000
           A2           0.00000   0.00000   0.00000   0.00000   0.00000
           A3           0.00000   0.00000   0.00000   0.00000   0.00000
           A4           0.00000   0.00000   0.00000   0.00000   0.00000
           A5           0.00000   0.00000   0.00000   0.00000   0.00000
           A6           0.00000   0.00000   0.00000   0.00000   0.00000
           D1           0.00000   0.00000   0.00000   0.00000   0.00000
           D2           0.00000   0.00000   0.00000   0.00000   0.00000
           D3           0.00000   0.00000   0.00000   0.00000   0.00000
           D4           0.00000   0.00000   0.00000   0.00000   0.00000
                          A2        A3        A4        A5        A6
           A2           0.16000
           A3           0.00000   0.16000
           A4           0.00000   0.00000   0.16000
           A5           0.00000   0.00000   0.00000   0.16000
           A6           0.00000   0.00000   0.00000   0.00000   0.16000
           D1           0.00000   0.00000   0.00000   0.00000   0.00000
           D2           0.00000   0.00000   0.00000   0.00000   0.00000
           D3           0.00000   0.00000   0.00000   0.00000   0.00000
           D4           0.00000   0.00000   0.00000   0.00000   0.00000
                          D1        D2        D3        D4
           D1           0.00499
           D2           0.00000   0.00499
           D3           0.00000   0.00000   0.00499
           D4           0.00000   0.00000   0.00000   0.00499
 ITU=  1  1  0
 Use linear search instead of GDIIS.
     Eigenvalues ---    0.05269   0.05891   0.08766   0.16000   0.16000
     Eigenvalues ---    0.37230   0.37230   0.37230   0.46965
 RFO step:  Lambda= 0.00000000D+00 EMin= 5.26881010D-02
 Quartic linear search produced a step of -0.00012.
 Iteration  1 RMS(Cart)=  0.00000048 RMS(Int)=  0.00000000
 ClnCor:  largest displacement from symmetrization is 2.53D-14 for atom     4.
 Variable       Old X    -DE/DX   Delta X   Delta X   Delta X     New X
                                 (Linear)    (Quad)   (Total)
    R1        2.04659   0.00000   0.00000   0.00000   0.00000   2.04659
    R2        2.04659   0.00000   0.00000   0.00000   0.00000   2.04659
    R3        2.04659   0.00000   0.00000   0.00000   0.00000   2.04659
    R4        2.04659   0.00000   0.00000   0.00000   0.00000   2.04659
    A1        1.91063   0.00000   0.00000   0.00000   0.00000   1.91063
    A2        1.91063   0.00000   0.00000   0.00000   0.00000   1.91063
    A3        1.91063   0.00000   0.00000   0.00000   0.00000   1.91063
    A4        1.91063   0.00000   0.00000   0.00000   0.00000   1.91063
    A5        1.91063   0.00000   0.00000   0.00000   0.00000   1.91063
    A6        1.91063   0.00000   0.00000   0.00000   0.00000   1.91063
    D1       -2.09440   0.00000   0.00000   0.00000   0.00000  -2.09440
    D2        2.09440   0.00000   0.00000   0.00000   0.00000   2.09440
    D3       -2.09440   0.00000   0.00000   0.00000   0.00000  -2.09440
    D4        2.09440   0.00000   0.00000   0.00000   0.00000   2.09440
         Item               Value     Threshold  Converged?
 Maximum Force            0.000000     0.000450     YES
 RMS     Force            0.000000     0.000300     YES
 Maximum Displacement     0.000001     0.001800     YES
 RMS     Displacement     0.000000     0.001200     YES
 Predicted change in Energy=-7.686156D-13
 Optimization completed.
    -- Stationary point found.
                           ----------------------------
                           !   Optimized Parameters   !
                           ! (Angstroms and Degrees)  !
 --------------------------                            --------------------------
 ! Name  Definition              Value          Derivative Info.                !
 --------------------------------------------------------------------------------
 ! R1    R(1,2)                  1.083          -DE/DX =    0.0                 !
 ! R2    R(1,3)                  1.083          -DE/DX =    0.0                 !
 ! R3    R(1,4)                  1.083          -DE/DX =    0.0                 !
 ! R4    R(1,5)                  1.083          -DE/DX =    0.0                 !
 ! A1    A(2,1,3)              109.4712         -DE/DX =    0.0                 !
 ! A2    A(2,1,4)              109.4712         -DE/DX =    0.0                 !
 ! A3    A(2,1,5)              109.4712         -DE/DX =    0.0                 !
 ! A4    A(3,1,4)              109.4712         -DE/DX =    0.0                 !
 ! A5    A(3,1,5)              109.4712         -DE/DX =    0.0                 !
 ! A6    A(4,1,5)              109.4712         -DE/DX =    0.0                 !
 ! D1    D(2,1,4,3)           -120.0            -DE/DX =    0.0                 !
 ! D2    D(2,1,5,3)            120.0            -DE/DX =    0.0                 !
 ! D3    D(2,1,5,4)           -120.0            -DE/DX =    0.0                 !
 ! D4    D(3,1,5,4)            120.0            -DE/DX =    0.0                 !
 --------------------------------------------------------------------------------
 GradGradGradGradGradGradGradGradGradGradGradGradGradGradGradGradGradGrad

                          Input orientation:                          
 ---------------------------------------------------------------------
 Center     Atomic      Atomic             Coordinates (Angstroms)
 Number     Number       Type             X           Y           Z
 ---------------------------------------------------------------------
      1          6           0       -0.480480    1.246246    0.000000
      2          1           0       -0.119490    0.225170   -0.000001
      3          1           0       -0.119470    1.756777    0.884274
      4          1           0       -0.119472    1.756778   -0.884274
      5          1           0       -1.563490    1.246259    0.000001
 ---------------------------------------------------------------------
                    Distance matrix (angstroms):
                    1          2          3          4          5
     1  C    0.000000
     2  H    1.083010   0.000000
     3  H    1.083010   1.768548   0.000000
     4  H    1.083010   1.768548   1.768548   0.000000
     5  H    1.083010   1.768548   1.768548   1.768548   0.000000
 Stoichiometry    CH4
 Framework group  TD[O(C),4C3(H)]
 Deg. of freedom     1
 Full point group                 TD      NOp  24
 Largest Abelian subgroup         D2      NOp   4
 Largest concise Abelian subgroup D2      NOp   4
                         Standard orientation:                         
 ---------------------------------------------------------------------
 Center     Atomic      Atomic             Coordinates (Angstroms)
 Number     Number       Type             X           Y           Z
 ---------------------------------------------------------------------
      1          6           0        0.000000    0.000000    0.000000
      2          1           0        0.625276    0.625276    0.625276
      3          1           0       -0.625276   -0.625276    0.625276
      4          1           0       -0.625276    0.625276   -0.625276
      5          1           0        0.625276   -0.625276   -0.625276
 ---------------------------------------------------------------------
 Rotational constants (GHZ):    160.3239991    160.3239991    160.3239991

 **********************************************************************

            Population analysis using the SCF density.

 **********************************************************************

 Orbital symmetries:
       Occupied  (A1) (A1) (T2) (T2) (T2)
       Virtual   (T2) (T2) (T2) (A1)
 The electronic state is 1-A1.
 Alpha  occ. eigenvalues --  -11.02969  -0.91210  -0.52050  -0.52050  -0.52050
 Alpha virt. eigenvalues --    0.71922   0.71922   0.71922   0.76106
          Condensed to atoms (all electrons):
               1          2          3          4          5
     1  C    4.719178   0.385864   0.385864   0.385864   0.385864
     2  H    0.385864   0.608263  -0.019929  -0.019929  -0.019929
     3  H    0.385864  -0.019929   0.608263  -0.019929  -0.019929
     4  H    0.385864  -0.019929  -0.019929   0.608263  -0.019929
     5  H    0.385864  -0.019929  -0.019929  -0.019929   0.608263
 Mulliken charges:
               1
     1  C   -0.262635
     2  H    0.065659
     3  H    0.065659
     4  H    0.065659
     5  H    0.065659
 Sum of Mulliken charges =   0.00000
 Mulliken charges with hydrogens summed into heavy atoms:
               1
     1  C    0.000000
 Electronic spatial extent (au):  <R**2>=             34.2423
 Charge=              0.0000 electrons
 Dipole moment (field-independent basis, Debye):
    X=              0.0000    Y=              0.0000    Z=              0.0000  Tot=              0.0000
 Quadrupole moment (field-independent basis, Debye-Ang):
   XX=             -7.8407   YY=             -7.8407   ZZ=             -7.8407
   XY=              0.0000   XZ=              0.0000   YZ=              0.0000
 Traceless Quadrupole moment (field-independent basis, Debye-Ang):
   XX=              0.0000   YY=              0.0000   ZZ=              0.0000
   XY=              0.0000   XZ=              0.0000   YZ=              0.0000
 Octapole moment (field-independent basis, Debye-Ang**2):
  XXX=              0.0000  YYY=              0.0000  ZZZ=              0.0000  XYY=              0.0000
  XXY=              0.0000  XXZ=              0.0000  XZZ=              0.0000  YZZ=              0.0000
  YYZ=              0.0000  XYZ=              0.5761
 Hexadecapole moment (field-independent basis, Debye-Ang**3):
 XXXX=            -13.6920 YYYY=            -13.6920 ZZZZ=            -13.6920 XXXY=              0.0000
 XXXZ=              0.0000 YYYX=              0.0000 YYYZ=              0.0000 ZZZX=              0.0000
 ZZZY=              0.0000 XXYY=             -4.1866 XXZZ=             -4.1866 YYZZ=             -4.1866
 XXYZ=              0.0000 YYXZ=              0.0000 ZZXY=              0.0000
 N-N= 1.352210668016D+01 E-N=-1.189569768066D+02  KE= 3.946557205768D+01
 Symmetry A    KE= 3.363709145284D+01
 Symmetry B1   KE= 1.942826868281D+00
 Symmetry B2   KE= 1.942826868281D+00
 Symmetry B3   KE= 1.942826868281D+00
 1\1\GINC-MAYANK-HP\FOpt\RHF\STO-3G\C1H4\MAYANK\19-Feb-2025\0\\# opt fr
 eq hf/sto-3g geom=connectivity\\Title Card Required\\0,1\C,-0.48048047
 ,1.246246186,0.\H,-0.1194895767,0.2251703664,-0.0000008741\H,-0.119470
 2967,1.756777027,0.8842738092\H,-0.119471724,1.7567780363,-0.884273809
 2\H,-1.5634902826,1.2462593144,0.0000008741\\Version=AM64L-G09RevD.01\
 State=1-A1\HF=-39.7268637\RMSD=5.651e-12\RMSF=2.194e-07\Dipole=0.,0.,0
 .\Quadrupole=0.,0.,0.,0.,0.,0.\PG=TD [O(C1),4C3(H1)]\\@


 ALL SCIENCE IS EITHER PHYSICS, OR STAMP COLLECTING.
   --ERNEST RUTHERFORD, 1871-1937.
 Job cpu time:       0 days  0 hours  0 minutes  1.5 seconds.
 File lengths (MBytes):  RWF=      5 Int=      0 D2E=      0 Chk=      1 Scr=      1
 Normal termination of Gaussian 09 at Wed Feb 19 03:34:09 2025.
 Link1:  Proceeding to internal job step number  2.
 ---------------------------------------------------------------
 #N Geom=AllCheck Guess=TCheck SCRF=Check GenChk RHF/STO-3G Freq
 ---------------------------------------------------------------
 1/10=4,29=7,30=1,38=1,40=1/1,3;
 2/12=2,40=1/2;
 3/6=3,11=1,14=-4,16=1,25=1,30=1,70=2,71=2,116=1,140=1/1,2,3;
 4/5=101/1;
 5/5=2,98=1/2;
 8/6=4,10=90,11=11/1;
 10/13=10,15=4/2;
 11/6=3,8=1,9=11,15=111,16=1/1,2,10;
 10/6=1/2;
 6/7=2,8=2,9=2,10=2,18=1,28=1/1;
 7/8=1,10=1,25=1/1,2,3,16;
 1/10=4,30=1/3;
 99//99;
 Structure from the checkpoint file:  "ch4.chk"
 -------------------
 Title Card Required
 -------------------
 Charge =  0 Multiplicity = 1
 Redundant internal coordinates found in file.
 C,0,-0.48048047,1.246246186,0.
 H,0,-0.1194895767,0.2251703664,-0.0000008741
 H,0,-0.1194702967,1.756777027,0.8842738092
 H,0,-0.119471724,1.7567780363,-0.8842738092
 H,0,-1.5634902826,1.2462593144,0.0000008741
 Recover connectivity data from disk.

 GradGradGradGradGradGradGradGradGradGradGradGradGradGradGradGradGradGrad
 Berny optimization.
 Initialization pass.
                           ----------------------------
                           !    Initial Parameters    !
                           ! (Angstroms and Degrees)  !
 --------------------------                            --------------------------
 ! Name  Definition              Value          Derivative Info.                !
 --------------------------------------------------------------------------------
 ! R1    R(1,2)                  1.083          calculate D2E/DX2 analytically  !
 ! R2    R(1,3)                  1.083          calculate D2E/DX2 analytically  !
 ! R3    R(1,4)                  1.083          calculate D2E/DX2 analytically  !
 ! R4    R(1,5)                  1.083          calculate D2E/DX2 analytically  !
 ! A1    A(2,1,3)              109.4712         calculate D2E/DX2 analytically  !
 ! A2    A(2,1,4)              109.4712         calculate D2E/DX2 analytically  !
 ! A3    A(2,1,5)              109.4712         calculate D2E/DX2 analytically  !
 ! A4    A(3,1,4)              109.4712         calculate D2E/DX2 analytically  !
 ! A5    A(3,1,5)              109.4712         calculate D2E/DX2 analytically  !
 ! A6    A(4,1,5)              109.4712         calculate D2E/DX2 analytically  !
 ! D1    D(2,1,4,3)           -120.0            calculate D2E/DX2 analytically  !
 ! D2    D(2,1,5,3)            120.0            calculate D2E/DX2 analytically  !
 ! D3    D(2,1,5,4)           -120.0            calculate D2E/DX2 analytically  !
 ! D4    D(3,1,5,4)            120.0            calculate D2E/DX2 analytically  !
 --------------------------------------------------------------------------------
 Trust Radius=3.00D-01 FncErr=1.00D-07 GrdErr=1.00D-07
 Number of steps in this run=      2 maximum allowed number of steps=      2.
 GradGradGradGradGradGradGradGradGradGradGradGradGradGradGradGradGradGrad

                          Input orientation:                          
 ---------------------------------------------------------------------
 Center     Atomic      Atomic             Coordinates (Angstroms)
 Number     Number       Type             X           Y           Z
 ---------------------------------------------------------------------
      1          6           0       -0.480480    1.246246    0.000000
      2          1           0       -0.119490    0.225170   -0.000001
      3          1           0       -0.119470    1.756777    0.884274
      4          1           0       -0.119472    1.756778   -0.884274
      5          1           0       -1.563490    1.246259    0.000001
 ---------------------------------------------------------------------
                    Distance matrix (angstroms):
                    1          2          3          4          5
     1  C    0.000000
     2  H    1.083010   0.000000
     3  H    1.083010   1.768548   0.000000
     4  H    1.083010   1.768548   1.768548   0.000000
     5  H    1.083010   1.768548   1.768548   1.768548   0.000000
 Stoichiometry    CH4
 Framework group  TD[O(C),4C3(H)]
 Deg. of freedom     1
 Full point group                 TD      NOp  24
 Largest Abelian subgroup         D2      NOp   4
 Largest concise Abelian subgroup D2      NOp   4
                         Standard orientation:                         
 ---------------------------------------------------------------------
 Center     Atomic      Atomic             Coordinates (Angstroms)
 Number     Number       Type             X           Y           Z
 ---------------------------------------------------------------------
      1          6           0        0.000000    0.000000    0.000000
      2          1           0        0.625276    0.625276    0.625276
      3          1           0       -0.625276   -0.625276    0.625276
      4          1           0       -0.625276    0.625276   -0.625276
      5          1           0        0.625276   -0.625276   -0.625276
 ---------------------------------------------------------------------
 Rotational constants (GHZ):    160.3239991    160.3239991    160.3239991
 Standard basis: STO-3G (5D, 7F)
 There are     3 symmetry adapted cartesian basis functions of A   symmetry.
 There are     2 symmetry adapted cartesian basis functions of B1  symmetry.
 There are     2 symmetry adapted cartesian basis functions of B2  symmetry.
 There are     2 symmetry adapted cartesian basis functions of B3  symmetry.
 There are     3 symmetry adapted basis functions of A   symmetry.
 There are     2 symmetry adapted basis functions of B1  symmetry.
 There are     2 symmetry adapted basis functions of B2  symmetry.
 There are     2 symmetry adapted basis functions of B3  symmetry.
     9 basis functions,    27 primitive gaussians,     9 cartesian basis functions
     5 alpha electrons        5 beta electrons
       nuclear repulsion energy        13.5221066802 Hartrees.
 NAtoms=    5 NActive=    5 NUniq=    2 SFac= 4.00D+00 NAtFMM=   60 NAOKFM=F Big=F
 Integral buffers will be    131072 words long.
 Raffenetti 1 integral format.
 Two-electron integral symmetry is turned on.
 One-electron integrals computed using PRISM.
 NBasis=     9 RedAO= T EigKep=  2.01D-01  NBF=     3     2     2     2
 NBsUse=     9 1.00D-06 EigRej= -1.00D+00 NBFU=     3     2     2     2
 Initial guess from the checkpoint file:  "ch4.chk"
 B after Tr=     0.000000    0.000000    0.000000
         Rot=    1.000000    0.000000    0.000000    0.000000 Ang=   0.00 deg.
 Initial guess orbital symmetries:
       Occupied  (A1) (A1) (T2) (T2) (T2)
       Virtual   (T2) (T2) (T2) (A1)
 Keep R1 ints in memory in symmetry-blocked form, NReq=825475.
 Requested convergence on RMS density matrix=1.00D-08 within 128 cycles.
 Requested convergence on MAX density matrix=1.00D-06.
 Requested convergence on             energy=1.00D-06.
 No special actions if energy rises.
 Skip diagonalization as Alpha Fock matrix is already diagonal.
 SCF Done:  E(RHF) =  -39.7268636774     A.U. after    1 cycles
            NFock=  1  Conv=0.00D+00     -V/T= 2.0066
 Range of M.O.s used for correlation:     1     9
 NBasis=     9 NAE=     5 NBE=     5 NFC=     0 NFV=     0
 NROrb=      9 NOA=     5 NOB=     5 NVA=     4 NVB=     4
          Differentiating once with respect to electric field.
                with respect to dipole field.
          Electric field/nuclear overlap derivatives assumed to be zero.
 Keep R1 ints in memory in symmetry-blocked form, NReq=807330.
          There are     3 degrees of freedom in the 1st order CPHF.  IDoFFX=0 NUNeed=     3.
      3 vectors produced by pass  0 Test12= 6.67D-16 3.33D-08 XBig12= 8.82D-01 5.94D-01.
 AX will form     3 AO Fock derivatives at one time.
      3 vectors produced by pass  1 Test12= 6.67D-16 3.33D-08 XBig12= 1.53D-04 1.23D-02.
      3 vectors produced by pass  2 Test12= 6.67D-16 3.33D-08 XBig12= 7.57D-08 2.46D-04.
      3 vectors produced by pass  3 Test12= 6.67D-16 3.33D-08 XBig12= 2.30D-10 1.22D-05.
 InvSVY:  IOpt=1 It=  1 EMax= 1.11D-16
 Solved reduced A of dimension    12 with     3 vectors.
 End of Minotr F.D. properties file   721 does not exist.
 End of Minotr F.D. properties file   722 does not exist.
 End of Minotr F.D. properties file   788 does not exist.
 Symmetrizing basis deriv contribution to polar:
 IMax=3 JMax=2 DiffMx= 0.00D+00
 G2DrvN: will do     6 centers at a time, making    1 passes.
 PxScal for G2LodP:  IOpCl= 0 ISclPx=1 IMOff=     1 NMtTot=     4 NTT=      45 ScalPx= 1.00D+00
 Calling FoFCou, ICntrl=  3107 FMM=F I1Cent=   0 AccDes= 0.00D+00.
 End of G2Drv F.D. properties file   721 does not exist.
 End of G2Drv F.D. properties file   722 does not exist.
 End of G2Drv F.D. properties file   788 does not exist.
          IDoAtm=11111
          Differentiating once with respect to electric field.
                with respect to dipole field.
          Differentiating once with respect to nuclear coordinates.
 Keep R1 ints in memory in symmetry-blocked form, NReq=807448.
          There are     9 degrees of freedom in the 1st order CPHF.  IDoFFX=4 NUNeed=     9.
 Will reuse    3 saved solutions.
      6 vectors produced by pass  0 Test12= 2.22D-16 1.11D-08 XBig12= 5.68D-03 6.19D-02.
 AX will form     6 AO Fock derivatives at one time.
      6 vectors produced by pass  1 Test12= 2.22D-16 1.11D-08 XBig12= 1.00D-05 2.92D-03.
      6 vectors produced by pass  2 Test12= 2.22D-16 1.11D-08 XBig12= 7.46D-09 8.40D-05.
      1 vectors produced by pass  3 Test12= 2.22D-16 1.11D-08 XBig12= 9.70D-13 3.82D-07.
 InvSVY:  IOpt=1 It=  1 EMax= 2.22D-16
 Solved reduced A of dimension    19 with     6 vectors.
 Isotropic polarizability for W=    0.000000        5.57 Bohr**3.
 End of Minotr F.D. properties file   721 does not exist.
 End of Minotr F.D. properties file   722 does not exist.
 End of Minotr F.D. properties file   788 does not exist.

 **********************************************************************

            Population analysis using the SCF density.

 **********************************************************************

 Orbital symmetries:
       Occupied  (A1) (A1) (T2) (T2) (T2)
       Virtual   (T2) (T2) (T2) (A1)
 The electronic state is 1-A1.
 Alpha  occ. eigenvalues --  -11.02969  -0.91210  -0.52050  -0.52050  -0.52050
 Alpha virt. eigenvalues --    0.71922   0.71922   0.71922   0.76106
          Condensed to atoms (all electrons):
               1          2          3          4          5
     1  C    4.719178   0.385864   0.385864   0.385864   0.385864
     2  H    0.385864   0.608263  -0.019929  -0.019929  -0.019929
     3  H    0.385864  -0.019929   0.608263  -0.019929  -0.019929
     4  H    0.385864  -0.019929  -0.019929   0.608263  -0.019929
     5  H    0.385864  -0.019929  -0.019929  -0.019929   0.608263
 Mulliken charges:
               1
     1  C   -0.262635
     2  H    0.065659
     3  H    0.065659
     4  H    0.065659
     5  H    0.065659
 Sum of Mulliken charges =   0.00000
 Mulliken charges with hydrogens summed into heavy atoms:
               1
     1  C    0.000000
 APT charges:
               1
     1  C   -0.087802
     2  H    0.021950
     3  H    0.021950
     4  H    0.021950
     5  H    0.021950
 Sum of APT charges =   0.00000
 APT charges with hydrogens summed into heavy atoms:
               1
     1  C    0.000000
 Electronic spatial extent (au):  <R**2>=             34.2423
 Charge=              0.0000 electrons
 Dipole moment (field-independent basis, Debye):
    X=              0.0000    Y=              0.0000    Z=              0.0000  Tot=              0.0000
 Quadrupole moment (field-independent basis, Debye-Ang):
   XX=             -7.8407   YY=             -7.8407   ZZ=             -7.8407
   XY=              0.0000   XZ=              0.0000   YZ=              0.0000
 Traceless Quadrupole moment (field-independent basis, Debye-Ang):
   XX=              0.0000   YY=              0.0000   ZZ=              0.0000
   XY=              0.0000   XZ=              0.0000   YZ=              0.0000
 Octapole moment (field-independent basis, Debye-Ang**2):
  XXX=              0.0000  YYY=              0.0000  ZZZ=              0.0000  XYY=              0.0000
  XXY=              0.0000  XXZ=              0.0000  XZZ=              0.0000  YZZ=              0.0000
  YYZ=              0.0000  XYZ=              0.5761
 Hexadecapole moment (field-independent basis, Debye-Ang**3):
 XXXX=            -13.6920 YYYY=            -13.6920 ZZZZ=            -13.6920 XXXY=              0.0000
 XXXZ=              0.0000 YYYX=              0.0000 YYYZ=              0.0000 ZZZX=              0.0000
 ZZZY=              0.0000 XXYY=             -4.1866 XXZZ=             -4.1866 YYZZ=             -4.1866
 XXYZ=              0.0000 YYXZ=              0.0000 ZZXY=              0.0000
 N-N= 1.352210668016D+01 E-N=-1.189569768066D+02  KE= 3.946557205768D+01
 Symmetry A    KE= 3.363709145284D+01
 Symmetry B1   KE= 1.942826868281D+00
 Symmetry B2   KE= 1.942826868281D+00
 Symmetry B3   KE= 1.942826868281D+00
  Exact polarizability:   5.567   0.000   5.567   0.000   0.000   5.567
 Approx polarizability:   4.413   0.000   4.413   0.000   0.000   4.413
 Calling FoFJK, ICntrl=    100127 FMM=F ISym2X=1 I1Cent= 0 IOpClX= 0 NMat=1 NMatS=1 NMatT=0.
 Full mass-weighted force constant matrix:
 Low frequencies ---   -2.3330   -2.3330   -2.3330   -0.0007   -0.0007    0.0003
 Low frequencies --- 1675.7548 1675.7548 1675.7548
 Diagonal vibrational polarizability:
        0.0645475       0.0645475       0.0645475
 Diagonal vibrational hyperpolarizability:
        0.0000000       0.0000000       0.0000000
 Harmonic frequencies (cm**-1), IR intensities (KM/Mole), Raman scattering
 activities (A**4/AMU), depolarization ratios for plane and unpolarized
 incident light, reduced masses (AMU), force constants (mDyne/A),
 and normal coordinates:
                      1                      2                      3
                     T2                     T2                     T2
 Frequencies --   1675.7548              1675.7548              1675.7548
 Red. masses --      1.1714                 1.1714                 1.1714
 Frc consts  --      1.9382                 1.9382                 1.9382
 IR Inten    --      6.6439                 6.6439                 6.6439
 Raman Activ --      3.8438                 3.8438                 3.8438
 Depolar (P) --      0.7500                 0.7500                 0.7500
 Depolar (U) --      0.8571                 0.8571                 0.8571
  Atom  AN      X      Y      Z        X      Y      Z        X      Y      Z
     1   6    -0.01   0.10   0.06     0.01  -0.06   0.10     0.12   0.01   0.00
     2   1     0.36  -0.21   0.00     0.05   0.41  -0.41    -0.34   0.19   0.28
     3   1     0.11  -0.45  -0.37    -0.36   0.00  -0.21    -0.32   0.20  -0.26
     4   1    -0.05  -0.41  -0.41     0.30  -0.04  -0.17    -0.40  -0.27   0.22
     5   1    -0.29  -0.17   0.04    -0.11   0.37  -0.45    -0.38  -0.29  -0.20
                      4                      5                      6
                      E                      E                     A1
 Frequencies --   1903.7184              1903.7184              3525.9189
 Red. masses --      1.0078                 1.0078                 1.0078
 Frc consts  --      2.1520                 2.1520                 7.3821
 IR Inten    --      0.0000                 0.0000                 0.0000
 Raman Activ --     21.6711                21.6711                41.7310
 Depolar (P) --      0.7500                 0.7500                 0.0000
 Depolar (U) --      0.8571                 0.8571                 0.0000
  Atom  AN      X      Y      Z        X      Y      Z        X      Y      Z
     1   6     0.00   0.00   0.00     0.00   0.00   0.00     0.00   0.00   0.00
     2   1    -0.02  -0.35   0.36     0.41  -0.22  -0.19    -0.29  -0.29  -0.29
     3   1     0.02   0.35   0.36    -0.41   0.22  -0.19     0.29   0.29  -0.29
     4   1     0.02  -0.35  -0.36    -0.41  -0.22   0.19     0.29  -0.29   0.29
     5   1    -0.02   0.35  -0.36     0.41   0.22   0.19    -0.29   0.29   0.29
                      7                      8                      9
                     T2                     T2                     T2
 Frequencies --   3786.6308              3786.6308              3786.6308
 Red. masses --      1.1083                 1.1083                 1.1083
 Frc consts  --      9.3631                 9.3631                 9.3631
 IR Inten    --      0.4675                 0.4675                 0.4675
 Raman Activ --     21.2830                21.2830                21.2830
 Depolar (P) --      0.7500                 0.7500                 0.7500
 Depolar (U) --      0.8571                 0.8571                 0.8571
  Atom  AN      X      Y      Z        X      Y      Z        X      Y      Z
     1   6     0.06  -0.07   0.01    -0.04  -0.02   0.09    -0.06  -0.06  -0.04
     2   1     0.00  -0.01   0.00    -0.08  -0.08  -0.08     0.49   0.49   0.49
     3   1     0.08   0.07  -0.07     0.43   0.43  -0.43     0.24   0.24  -0.24
     4   1    -0.44   0.44  -0.44    -0.19   0.19  -0.19     0.13  -0.14   0.13
     5   1    -0.36   0.36   0.37     0.32  -0.32  -0.32    -0.12   0.12   0.12

 -------------------
 - Thermochemistry -
 -------------------
 Temperature   298.150 Kelvin.  Pressure   1.00000 Atm.
 Atom     1 has atomic number  6 and mass  12.00000
 Atom     2 has atomic number  1 and mass   1.00783
 Atom     3 has atomic number  1 and mass   1.00783
 Atom     4 has atomic number  1 and mass   1.00783
 Atom     5 has atomic number  1 and mass   1.00783
 Molecular mass:    16.03130 amu.
 Principal axes and moments of inertia in atomic units:
                           1         2         3
     Eigenvalues --    11.25684  11.25684  11.25684
           X            0.10691   0.01266   0.99419
           Y           -0.30722   0.95141   0.02092
           Z            0.94561   0.30768  -0.10560
 This molecule is a spherical top.
 Rotational symmetry number 12.
 Rotational temperatures (Kelvin)      7.69433     7.69433     7.69433
 Rotational constants (GHZ):         160.32400   160.32400   160.32400
 Zero-point vibrational energy     141880.2 (Joules/Mol)
                                   33.91017 (Kcal/Mol)
 Vibrational temperatures:   2411.03  2411.03  2411.03  2739.02  2739.02
          (Kelvin)           5073.00  5448.11  5448.11  5448.11
 
 Zero-point correction=                           0.054039 (Hartree/Particle)
 Thermal correction to Energy=                    0.056881
 Thermal correction to Enthalpy=                  0.057825
 Thermal correction to Gibbs Free Energy=         0.036746
 Sum of electronic and zero-point Energies=            -39.672824
 Sum of electronic and thermal Energies=               -39.669983
 Sum of electronic and thermal Enthalpies=             -39.669039
 Sum of electronic and thermal Free Energies=          -39.690117
 
                     E (Thermal)             CV                S
                      KCal/Mol        Cal/Mol-Kelvin    Cal/Mol-Kelvin
 Total                   35.693              6.116             44.363
 Electronic               0.000              0.000              0.000
 Translational            0.889              2.981             34.261
 Rotational               0.889              2.981             10.081
 Vibrational             33.916              0.154              0.021
                       Q            Log10(Q)             Ln(Q)
 Total Bot       0.125281D-16        -16.902113        -38.918554
 Total V=0       0.899887D+08          7.954188         18.315195
 Vib (Bot)       0.139376D-24        -24.855811        -57.232621
 Vib (V=0)       0.100113D+01          0.000490          0.001128
 Electronic      0.100000D+01          0.000000          0.000000
 Translational   0.252295D+07          6.401908         14.740939
 Rotational      0.356279D+02          1.551790          3.573128
 ***** Axes restored to original set *****
 -------------------------------------------------------------------
 Center     Atomic                   Forces (Hartrees/Bohr)
 Number     Number              X              Y              Z
 -------------------------------------------------------------------
      1        6           0.000000000    0.000000000    0.000000000
      2        1           0.000000142   -0.000000401    0.000000000
      3        1           0.000000142    0.000000200    0.000000347
      4        1           0.000000142    0.000000200   -0.000000347
      5        1          -0.000000425    0.000000000    0.000000000
 -------------------------------------------------------------------
 Cartesian Forces:  Max     0.000000425 RMS     0.000000219
 FormGI is forming the generalized inverse of G from B-inverse, IUseBI=4.

 GradGradGradGradGradGradGradGradGradGradGradGradGradGradGradGradGradGrad
 Berny optimization.
 Internal  Forces:  Max     0.000000425 RMS     0.000000227
 Search for a local minimum.
 Step number   1 out of a maximum of    2
 All quantities printed in internal units (Hartrees-Bohrs-Radians)
 Second derivative matrix not updated -- analytic derivatives used.
 The second derivative matrix:
                          R1        R2        R3        R4        A1
           R1           0.48930
           R2          -0.00505   0.48930
           R3          -0.00505  -0.00505   0.48930
           R4          -0.00505  -0.00505  -0.00505   0.48930
           A1           0.00173   0.00173  -0.00109  -0.00238   0.02881
           A2           0.00272  -0.00070   0.00302  -0.00504  -0.01251
           A3           0.00531  -0.00426  -0.00471   0.00367  -0.01899
           A4          -0.00070   0.00272   0.00302  -0.00504  -0.01251
           A5          -0.00426   0.00531  -0.00471   0.00367  -0.01899
           A6          -0.00479  -0.00479   0.00447   0.00512   0.03419
           D1          -0.00336  -0.00336  -0.00237   0.00908  -0.01997
           D2           0.00276   0.00276  -0.00711   0.00158   0.01203
           D3          -0.00364   0.00640  -0.00355   0.00079   0.00601
           D4          -0.00640   0.00364   0.00355  -0.00079  -0.00601
                          A2        A3        A4        A5        A6
           A2           0.05460
           A3          -0.03302   0.10665
           A4          -0.00253   0.03525   0.05460
           A5           0.03525  -0.05125  -0.03302   0.10665
           A6          -0.04179  -0.03865  -0.04179  -0.03865   0.12669
           D1          -0.01657   0.02189  -0.01657   0.02189   0.00932
           D2          -0.01395   0.01067  -0.01395   0.01067  -0.00546
           D3          -0.02106  -0.00121   0.00710   0.01188  -0.00273
           D4          -0.00710  -0.01188   0.02106   0.00121   0.00273
                          D1        D2        D3        D4
           D1           0.04474
           D2           0.00236   0.02780
           D3           0.00118   0.01390   0.02820
           D4          -0.00118  -0.01390   0.01430   0.02820
 ITU=  0
     Eigenvalues ---    0.05740   0.06480   0.09895   0.19188   0.19221
     Eigenvalues ---    0.47416   0.49486   0.49486   0.49502
 Angle between quadratic step and forces=   0.00 degrees.
 Linear search not attempted -- first point.
 Iteration  1 RMS(Cart)=  0.00000048 RMS(Int)=  0.00000000
 ClnCor:  largest displacement from symmetrization is 2.71D-14 for atom     4.
 Variable       Old X    -DE/DX   Delta X   Delta X   Delta X     New X
                                 (Linear)    (Quad)   (Total)
    R1        2.04659   0.00000   0.00000   0.00000   0.00000   2.04659
    R2        2.04659   0.00000   0.00000   0.00000   0.00000   2.04659
    R3        2.04659   0.00000   0.00000   0.00000   0.00000   2.04659
    R4        2.04659   0.00000   0.00000   0.00000   0.00000   2.04659
    A1        1.91063   0.00000   0.00000   0.00000   0.00000   1.91063
    A2        1.91063   0.00000   0.00000   0.00000   0.00000   1.91063
    A3        1.91063   0.00000   0.00000   0.00000   0.00000   1.91063
    A4        1.91063   0.00000   0.00000   0.00000   0.00000   1.91063
    A5        1.91063   0.00000   0.00000   0.00000   0.00000   1.91063
    A6        1.91063   0.00000   0.00000   0.00000   0.00000   1.91063
    D1       -2.09440   0.00000   0.00000   0.00000   0.00000  -2.09440
    D2        2.09440   0.00000   0.00000   0.00000   0.00000   2.09440
    D3       -2.09440   0.00000   0.00000   0.00000   0.00000  -2.09440
    D4        2.09440   0.00000   0.00000   0.00000   0.00000   2.09440
         Item               Value     Threshold  Converged?
 Maximum Force            0.000000     0.000450     YES
 RMS     Force            0.000000     0.000300     YES
 Maximum Displacement     0.000001     0.001800     YES
 RMS     Displacement     0.000000     0.001200     YES
 Predicted change in Energy=-7.613795D-13
 Optimization completed.
    -- Stationary point found.
                           ----------------------------
                           !   Optimized Parameters   !
                           ! (Angstroms and Degrees)  !
 --------------------------                            --------------------------
 ! Name  Definition              Value          Derivative Info.                !
 --------------------------------------------------------------------------------
 ! R1    R(1,2)                  1.083          -DE/DX =    0.0                 !
 ! R2    R(1,3)                  1.083          -DE/DX =    0.0                 !
 ! R3    R(1,4)                  1.083          -DE/DX =    0.0                 !
 ! R4    R(1,5)                  1.083          -DE/DX =    0.0                 !
 ! A1    A(2,1,3)              109.4712         -DE/DX =    0.0                 !
 ! A2    A(2,1,4)              109.4712         -DE/DX =    0.0                 !
 ! A3    A(2,1,5)              109.4712         -DE/DX =    0.0                 !
 ! A4    A(3,1,4)              109.4712         -DE/DX =    0.0                 !
 ! A5    A(3,1,5)              109.4712         -DE/DX =    0.0                 !
 ! A6    A(4,1,5)              109.4712         -DE/DX =    0.0                 !
 ! D1    D(2,1,4,3)           -120.0            -DE/DX =    0.0                 !
 ! D2    D(2,1,5,3)            120.0            -DE/DX =    0.0                 !
 ! D3    D(2,1,5,4)           -120.0            -DE/DX =    0.0                 !
 ! D4    D(3,1,5,4)            120.0            -DE/DX =    0.0                 !
 --------------------------------------------------------------------------------
 GradGradGradGradGradGradGradGradGradGradGradGradGradGradGradGradGradGrad

 1\1\GINC-MAYANK-HP\Freq\RHF\STO-3G\C1H4\MAYANK\19-Feb-2025\0\\#N Geom=
 AllCheck Guess=TCheck SCRF=Check GenChk RHF/STO-3G Freq\\Title Card Re
 quired\\0,1\C,-0.48048047,1.246246186,0.\H,-0.1194895767,0.2251703664,
 -0.0000008741\H,-0.1194702967,1.756777027,0.8842738092\H,-0.119471724,
 1.7567780363,-0.8842738092\H,-1.5634902826,1.2462593144,0.0000008741\\
 Version=AM64L-G09RevD.01\State=1-A1\HF=-39.7268637\RMSD=0.000e+00\RMSF
 =2.194e-07\ZeroPoint=0.0540393\Thermal=0.0568807\Dipole=0.,0.,0.\Dipol
 eDeriv=-0.0878018,0.,0.,0.,-0.0878018,0.,0.,0.,-0.0878018,0.0382417,0.
 0230379,0.,0.0230379,-0.0187769,0.,0.,0.,0.0463865,0.0382409,-0.011519
 4,-0.0199524,-0.0115194,0.0300961,-0.0282161,-0.0199524,-0.0282161,-0.
 0024856,0.0382409,-0.0115194,0.0199523,-0.0115194,0.0300961,0.0282162,
 0.0199523,0.0282162,-0.0024856,-0.0269217,0.0000009,0.,0.0000009,0.046
 3865,0.,0.,0.,0.0463865\Polar=5.566562,0.,5.566562,0.,0.,5.566562\Pola
 rDeriv=2.1379703,-0.0000518,-1.0689668,-0.0000035,-0.0000012,-1.069003
 5,-0.0000518,-1.0689668,1.5118122,-0.0000012,0.0000035,-1.5117603,-0.0
 000035,-0.0000012,0.0000035,-1.0690035,-1.5117603,0.,1.067631,-2.12779
 02,0.3648378,-0.000001,0.0000003,0.2936406,-0.1753376,1.0551075,-4.897
 0271,0.0000003,-0.0000027,0.1900018,0.0000006,0.0000003,-0.0000011,0.9
 839102,-1.7624509,-0.0000037,1.0677146,1.0638992,0.311437,1.8427257,0.
 0308342,0.3470499,0.0876864,1.0017435,1.8626716,0.0308342,1.8645252,0.
 4907897,0.1518593,0.0308342,0.1736588,1.0373564,1.4670025,3.902714,1.0
 677084,1.0639012,0.3114368,-1.842724,-0.0308336,0.3470495,0.0876865,1.
 0017406,1.8626761,-0.0308336,-1.8645269,0.49079,-0.1518576,-0.0308336,
 -0.1736605,1.0373533,1.4670047,-3.902714,-5.3410243,0.0000416,0.081255
 2,0.0000028,0.0000003,0.0812634,0.0000165,-1.9896247,-0.3401327,0.0000
 003,0.000001,0.340179,0.0000011,0.0000003,-0.0000006,-1.9896165,0.3402
 041,0.0000037\HyperPolar=-5.3580998,0.0001299,2.679004,-3.7888461,0.00
 00086,0.0000031,-0.0000086,2.6790958,3.7887162,0.\PG=TD [O(C1),4C3(H1)
 ]\NImag=0\\0.83899109,0.,0.83899109,0.,0.,0.83899109,-0.12211811,0.123
 91909,0.00000011,0.11480088,0.12391909,-0.42881742,-0.00000030,-0.1323
 9874,0.44248730,0.00000011,-0.00000030,-0.07830779,-0.00000011,0.00000
 032,0.06799266,-0.12212279,-0.06196199,-0.10732235,0.00643636,0.007898
 22,0.01689779,0.11480588,-0.06196199,-0.16593277,-0.15177237,-0.018583
 74,-0.01083258,-0.03595515,0.06620199,0.16161373,-0.10732235,-0.151772
 37,-0.34118776,0.00160894,0.00728984,0.00571704,0.11466631,0.16215800,
 0.34886124,-0.12212245,-0.06196187,0.10732192,0.00643633,0.00789823,-0
 .01689778,0.00643674,0.01068519,-0.01528963,0.11480551,-0.06196187,-0.
 16593312,0.15177267,-0.01858368,-0.01083261,0.03595516,0.01068514,0.01
 399170,-0.02162222,0.06620186,0.16161410,0.10732192,0.15177267,-0.3411
 8776,-0.00160896,-0.00728987,0.00571710,0.01528960,0.02162224,-0.01910
 762,-0.11466585,-0.16215832,0.34886124,-0.47262774,0.00000478,0.000000
 32,-0.00555546,-0.00731679,0.,-0.00555619,0.00365856,0.00633673,-0.005
 55613,0.00365856,-0.00633671,0.48929552,0.00000478,-0.07830779,0.,0.04
 564708,0.00799530,-0.00000003,-0.02282335,0.00115991,0.00394675,-0.022
 82340,0.00115992,-0.00394672,-0.00000511,0.06799266,0.00000032,0.,-0.0
 7830779,0.00000003,0.00000001,-0.00111901,-0.03953135,0.00394728,0.005
 71710,0.03953134,-0.00394729,0.00571704,-0.00000034,0.,0.06799266\\0.,
 0.,0.,-0.00000014,0.00000040,0.,-0.00000014,-0.00000020,-0.00000035,-0
 .00000014,-0.00000020,0.00000035,0.00000042,0.,0.\\\@


 REPARTEE - WHAT YOU THINK OF AFTER YOU BECOME A DEPARTEE.
 Job cpu time:       0 days  0 hours  0 minutes  0.9 seconds.
 File lengths (MBytes):  RWF=      5 Int=      0 D2E=      0 Chk=      1 Scr=      1
 Normal termination of Gaussian 09 at Wed Feb 19 03:34:10 2025.
