 Entering Gaussian System, Link 0=g09
 Input=/home/mayank/Desktop/software/gaussian/Gview_and_Gaussian/g09/scratch/Q2/butane.com
 Output=/home/mayank/Desktop/software/gaussian/Gview_and_Gaussian/g09/scratch/Q2/butane.log
 Initial command:
 /home/mayank/Desktop/software/gaussian/Gview_and_Gaussian/g09/l1.exe "/home/mayank/Desktop/software/gaussian/Gview_and_Gaussian/g09/scratch/Gau-72325.inp" -scrdir="/home/mayank/Desktop/software/gaussian/Gview_and_Gaussian/g09/scratch/"
 Entering Link 1 = /home/mayank/Desktop/software/gaussian/Gview_and_Gaussian/g09/l1.exe PID=     72328.
  
 Copyright (c) 1988,1990,1992,1993,1995,1998,2003,2009,2013,
            Gaussian, Inc.  All Rights Reserved.
  
 This is part of the Gaussian(R) 09 program.  It is based on
 the Gaussian(R) 03 system (copyright 2003, Gaussian, Inc.),
 the Gaussian(R) 98 system (copyright 1998, Gaussian, Inc.),
 the Gaussian(R) 94 system (copyright 1995, Gaussian, Inc.),
 the Gaussian 92(TM) system (copyright 1992, Gaussian, Inc.),
 the Gaussian 90(TM) system (copyright 1990, Gaussian, Inc.),
 the Gaussian 88(TM) system (copyright 1988, Gaussian, Inc.),
 the Gaussian 86(TM) system (copyright 1986, Carnegie Mellon
 University), and the Gaussian 82(TM) system (copyright 1983,
 Carnegie Mellon University). Gaussian is a federally registered
 trademark of Gaussian, Inc.
  
 This software contains proprietary and confidential information,
 including trade secrets, belonging to Gaussian, Inc.
  
 This software is provided under written license and may be
 used, copied, transmitted, or stored only in accord with that
 written license.
  
 The following legend is applicable only to US Government
 contracts under FAR:
  
                    RESTRICTED RIGHTS LEGEND
  
 Use, reproduction and disclosure by the US Government is
 subject to restrictions as set forth in subparagraphs (a)
 and (c) of the Commercial Computer Software - Restricted
 Rights clause in FAR 52.227-19.
  
 Gaussian, Inc.
 340 Quinnipiac St., Bldg. 40, Wallingford CT 06492
  
  
 ---------------------------------------------------------------
 Warning -- This program may not be used in any manner that
 competes with the business of Gaussian, Inc. or will provide
 assistance to any competitor of Gaussian, Inc.  The licensee
 of this program is prohibited from giving any competitor of
 Gaussian, Inc. access to this program.  By using this program,
 the user acknowledges that Gaussian, Inc. is engaged in the
 business of creating and licensing software in the field of
 computational chemistry and represents and warrants to the
 licensee that it is not a competitor of Gaussian, Inc. and that
 it will not use this program in any manner prohibited above.
 ---------------------------------------------------------------
  

 Cite this work as:
 Gaussian 09, Revision D.01,
 M. J. Frisch, G. W. Trucks, H. B. Schlegel, G. E. Scuseria, 
 M. A. Robb, J. R. Cheeseman, G. Scalmani, V. Barone, B. Mennucci, 
 G. A. Petersson, H. Nakatsuji, M. Caricato, X. Li, H. P. Hratchian, 
 A. F. Izmaylov, J. Bloino, G. Zheng, J. L. Sonnenberg, M. Hada, 
 M. Ehara, K. Toyota, R. Fukuda, J. Hasegawa, M. Ishida, T. Nakajima, 
 Y. Honda, O. Kitao, H. Nakai, T. Vreven, J. A. Montgomery, Jr., 
 J. E. Peralta, F. Ogliaro, M. Bearpark, J. J. Heyd, E. Brothers, 
 K. N. Kudin, V. N. Staroverov, T. Keith, R. Kobayashi, J. Normand, 
 K. Raghavachari, A. Rendell, J. C. Burant, S. S. Iyengar, J. Tomasi, 
 M. Cossi, N. Rega, J. M. Millam, M. Klene, J. E. Knox, J. B. Cross, 
 V. Bakken, C. Adamo, J. Jaramillo, R. Gomperts, R. E. Stratmann, 
 O. Yazyev, A. J. Austin, R. Cammi, C. Pomelli, J. W. Ochterski, 
 R. L. Martin, K. Morokuma, V. G. Zakrzewski, G. A. Voth, 
 P. Salvador, J. J. Dannenberg, S. Dapprich, A. D. Daniels, 
 O. Farkas, J. B. Foresman, J. V. Ortiz, J. Cioslowski, 
 and D. J. Fox, Gaussian, Inc., Wallingford CT, 2013.
 
 ******************************************
 Gaussian 09:  AM64L-G09RevD.01 24-Apr-2013
                19-Feb-2025 
 ******************************************
 %chk=butane.chk
 ----------------------------------------------
 # opt=modredundant hf/sto-3g geom=connectivity
 ----------------------------------------------
 1/18=120,19=15,38=1,57=2/1,3;
 2/9=110,12=2,17=6,18=5,40=1/2;
 3/6=3,11=9,16=1,25=1,30=1,71=1/1,2,3;
 4//1;
 5/5=2,38=5/2;
 6/7=2,8=2,9=2,10=2,28=1/1;
 7//1,2,3,16;
 1/18=20,19=15/3(2);
 2/9=110/2;
 99//99;
 2/9=110/2;
 3/6=3,11=9,16=1,25=1,30=1,71=1/1,2,3;
 4/5=5,16=3,69=1/1;
 5/5=2,38=5/2;
 7//1,2,3,16;
 1/18=20,19=15/3(-5);
 2/9=110/2;
 6/7=2,8=2,9=2,10=2,19=2,28=1/1;
 99/9=1/99;
 -------------------
 Title Card Required
 -------------------
 Symbolic Z-matrix:
 Charge =  0 Multiplicity = 1
 C                    -3.02517   1.09607   0. 
 H                    -2.66851   0.08726   0. 
 H                    -2.66849   1.60047  -0.87365 
 H                    -4.09517   1.09608   0. 
 C                    -2.51182   1.82203   1.2574 
 H                    -1.44182   1.82201   1.2574 
 H                    -2.8685    1.31763   2.13106 
 C                    -3.02514   3.27396   1.25741 
 H                    -4.09514   3.27397   1.25739 
 H                    -2.66845   3.77836   0.38376 
 C                    -2.51182   3.99991   2.51482 
 H                    -1.44182   3.99989   2.51484 
 H                    -2.86847   5.00872   2.51482 
 H                    -2.86851   3.4955    3.38847 
 
 The following ModRedundant input section has been read:
 D       5       1       8      11 S  15 24.000                                
 

 GradGradGradGradGradGradGradGradGradGradGradGradGradGradGradGradGradGrad
 Berny optimization.
 Initialization pass.
                           ----------------------------
                           !    Initial Parameters    !
                           ! (Angstroms and Degrees)  !
 --------------------------                            --------------------------
 ! Name  Definition              Value          Derivative Info.                !
 --------------------------------------------------------------------------------
 ! R1    R(1,2)                  1.07           estimate D2E/DX2                !
 ! R2    R(1,3)                  1.07           estimate D2E/DX2                !
 ! R3    R(1,4)                  1.07           estimate D2E/DX2                !
 ! R4    R(1,5)                  1.54           estimate D2E/DX2                !
 ! R5    R(5,6)                  1.07           estimate D2E/DX2                !
 ! R6    R(5,7)                  1.07           estimate D2E/DX2                !
 ! R7    R(5,8)                  1.54           estimate D2E/DX2                !
 ! R8    R(8,9)                  1.07           estimate D2E/DX2                !
 ! R9    R(8,10)                 1.07           estimate D2E/DX2                !
 ! R10   R(8,11)                 1.54           estimate D2E/DX2                !
 ! R11   R(11,12)                1.07           estimate D2E/DX2                !
 ! R12   R(11,13)                1.07           estimate D2E/DX2                !
 ! R13   R(11,14)                1.07           estimate D2E/DX2                !
 ! A1    A(2,1,3)              109.4712         estimate D2E/DX2                !
 ! A2    A(2,1,4)              109.4712         estimate D2E/DX2                !
 ! A3    A(2,1,5)              109.4712         estimate D2E/DX2                !
 ! A4    A(3,1,4)              109.4712         estimate D2E/DX2                !
 ! A5    A(3,1,5)              109.4713         estimate D2E/DX2                !
 ! A6    A(4,1,5)              109.4712         estimate D2E/DX2                !
 ! A7    A(1,5,6)              109.4712         estimate D2E/DX2                !
 ! A8    A(1,5,7)              109.4712         estimate D2E/DX2                !
 ! A9    A(1,5,8)              109.4712         estimate D2E/DX2                !
 ! A10   A(6,5,7)              109.4712         estimate D2E/DX2                !
 ! A11   A(6,5,8)              109.4713         estimate D2E/DX2                !
 ! A12   A(7,5,8)              109.4712         estimate D2E/DX2                !
 ! A13   A(5,8,9)              109.4712         estimate D2E/DX2                !
 ! A14   A(5,8,10)             109.4712         estimate D2E/DX2                !
 ! A15   A(5,8,11)             109.4712         estimate D2E/DX2                !
 ! A16   A(9,8,10)             109.4712         estimate D2E/DX2                !
 ! A17   A(9,8,11)             109.4713         estimate D2E/DX2                !
 ! A18   A(10,8,11)            109.4712         estimate D2E/DX2                !
 ! A19   A(8,11,12)            109.4712         estimate D2E/DX2                !
 ! A20   A(8,11,13)            109.4712         estimate D2E/DX2                !
 ! A21   A(8,11,14)            109.4712         estimate D2E/DX2                !
 ! A22   A(12,11,13)           109.4713         estimate D2E/DX2                !
 ! A23   A(12,11,14)           109.4712         estimate D2E/DX2                !
 ! A24   A(13,11,14)           109.4712         estimate D2E/DX2                !
 ! D1    D(2,1,5,6)             60.0            estimate D2E/DX2                !
 ! D2    D(2,1,5,7)            -60.0            estimate D2E/DX2                !
 ! D3    D(2,1,5,8)           -180.0            estimate D2E/DX2                !
 ! D4    D(3,1,5,6)            -60.0            estimate D2E/DX2                !
 ! D5    D(3,1,5,7)           -180.0            estimate D2E/DX2                !
 ! D6    D(3,1,5,8)             60.0            estimate D2E/DX2                !
 ! D7    D(4,1,5,6)            180.0            estimate D2E/DX2                !
 ! D8    D(4,1,5,7)             60.0            estimate D2E/DX2                !
 ! D9    D(4,1,5,8)            -60.0            estimate D2E/DX2                !
 ! D10   D(5,1,8,11)            -0.0018         Scan                            !
 ! D11   D(1,5,8,9)             59.9989         estimate D2E/DX2                !
 ! D12   D(1,5,8,10)           -60.0011         estimate D2E/DX2                !
 ! D13   D(1,5,8,11)           179.9989         estimate D2E/DX2                !
 ! D14   D(6,5,8,9)            179.9989         estimate D2E/DX2                !
 ! D15   D(6,5,8,10)            59.9989         estimate D2E/DX2                !
 ! D16   D(6,5,8,11)           -60.0011         estimate D2E/DX2                !
 ! D17   D(7,5,8,9)            -60.0011         estimate D2E/DX2                !
 ! D18   D(7,5,8,10)           179.9989         estimate D2E/DX2                !
 ! D19   D(7,5,8,11)            59.9989         estimate D2E/DX2                !
 ! D20   D(5,8,11,12)           59.9998         estimate D2E/DX2                !
 ! D21   D(5,8,11,13)          179.9998         estimate D2E/DX2                !
 ! D22   D(5,8,11,14)          -60.0002         estimate D2E/DX2                !
 ! D23   D(9,8,11,12)          179.9998         estimate D2E/DX2                !
 ! D24   D(9,8,11,13)          -60.0002         estimate D2E/DX2                !
 ! D25   D(9,8,11,14)           59.9998         estimate D2E/DX2                !
 ! D26   D(10,8,11,12)         -60.0002         estimate D2E/DX2                !
 ! D27   D(10,8,11,13)          59.9998         estimate D2E/DX2                !
 ! D28   D(10,8,11,14)         179.9998         estimate D2E/DX2                !
 --------------------------------------------------------------------------------
 Trust Radius=3.00D-01 FncErr=1.00D-07 GrdErr=1.00D-07
 Number of optimizations in scan=  16
 Number of steps in this run=     75 maximum allowed number of steps=    100.
 GradGradGradGradGradGradGradGradGradGradGradGradGradGradGradGradGradGrad

                          Input orientation:                          
 ---------------------------------------------------------------------
 Center     Atomic      Atomic             Coordinates (Angstroms)
 Number     Number       Type             X           Y           Z
 ---------------------------------------------------------------------
      1          6           0       -3.025165    1.096070    0.000000
      2          1           0       -2.668511    0.087260    0.000000
      3          1           0       -2.668492    1.600468   -0.873652
      4          1           0       -4.095165    1.096083    0.000000
      5          6           0       -2.511823    1.822026    1.257405
      6          1           0       -1.441823    1.822013    1.257405
      7          1           0       -2.868496    1.317627    2.131056
      8          6           0       -3.025139    3.273958    1.257405
      9          1           0       -4.095139    3.273970    1.257386
     10          1           0       -2.668451    3.778363    0.383764
     11          6           0       -2.511819    3.999906    2.514824
     12          1           0       -1.441819    3.999889    2.514845
     13          1           0       -2.868471    5.008717    2.514823
     14          1           0       -2.868511    3.495504    3.388466
 ---------------------------------------------------------------------
                    Distance matrix (angstroms):
                    1          2          3          4          5
     1  C    0.000000
     2  H    1.070000   0.000000
     3  H    1.070000   1.747302   0.000000
     4  H    1.070000   1.747303   1.747303   0.000000
     5  C    1.540000   2.148263   2.148263   2.148263   0.000000
     6  H    2.148263   2.468845   2.468846   3.024610   1.070000
     7  H    2.148263   2.468846   3.024611   2.468846   1.070000
     8  C    2.514809   3.444314   2.732978   2.732977   1.540000
     9  H    2.732968   3.710985   3.062230   2.514799   2.148263
    10  H    2.732987   3.710999   2.514820   3.062256   2.148263
    11  C    3.875581   4.653783   4.154951   4.154938   2.514809
    12  H    4.154949   4.810186   4.329418   4.668702   2.732975
    13  H    4.653783   5.530376   4.810188   4.810179   3.444314
    14  H    4.154940   4.810180   4.668706   4.329388   2.732979
                    6          7          8          9         10
     6  H    0.000000
     7  H    1.747303   0.000000
     8  C    2.148263   2.148263   0.000000
     9  H    3.024610   2.468852   1.070000   0.000000
    10  H    2.468840   3.024610   1.070000   1.747303   0.000000
    11  C    2.732986   2.732968   1.540000   2.148263   2.148263
    12  H    2.514817   3.062226   2.148263   3.024610   2.468847
    13  H    3.710998   3.710986   2.148263   2.468847   2.468844
    14  H    3.062259   2.514801   2.148263   2.468845   3.024610
                   11         12         13         14
    11  C    0.000000
    12  H    1.070000   0.000000
    13  H    1.070000   1.747303   0.000000
    14  H    1.070000   1.747303   1.747303   0.000000
 Stoichiometry    C4H10
 Framework group  C1[X(C4H10)]
 Deg. of freedom    36
 Full point group                 C1      NOp   1
 Largest Abelian subgroup         C1      NOp   1
 Largest concise Abelian subgroup C1      NOp   1
                         Standard orientation:                         
 ---------------------------------------------------------------------
 Center     Atomic      Atomic             Coordinates (Angstroms)
 Number     Number       Type             X           Y           Z
 ---------------------------------------------------------------------
      1          6           0       -1.933553    0.128084    0.000007
      2          1           0       -2.693620   -0.625042    0.000007
      3          1           0       -2.035231    0.737430   -0.873640
      4          1           0       -2.035218    0.737419    0.873663
      5          6           0       -0.546964   -0.541969   -0.000007
      6          1           0       -0.445299   -1.151304   -0.873663
      7          1           0       -0.445287   -1.151316    0.873639
      8          6           0        0.546964    0.541969   -0.000007
      9          1           0        0.445286    1.151316    0.873639
     10          1           0        0.445299    1.151304   -0.873663
     11          6           0        1.933553   -0.128084    0.000006
     12          1           0        2.035228   -0.737434   -0.873638
     13          1           0        2.693620    0.625042    0.000003
     14          1           0        2.035220   -0.737416    0.873664
 ---------------------------------------------------------------------
 Rotational constants (GHZ):     23.0583291      3.7383898      3.4902861
 Standard basis: STO-3G (5D, 7F)
 There are    30 symmetry adapted cartesian basis functions of A   symmetry.
 There are    30 symmetry adapted basis functions of A   symmetry.
    30 basis functions,    90 primitive gaussians,    30 cartesian basis functions
    17 alpha electrons       17 beta electrons
       nuclear repulsion energy       131.8273040507 Hartrees.
 NAtoms=   14 NActive=   14 NUniq=   14 SFac= 1.00D+00 NAtFMM=   60 NAOKFM=F Big=F
 Integral buffers will be    131072 words long.
 Raffenetti 1 integral format.
 Two-electron integral symmetry is turned on.
 One-electron integrals computed using PRISM.
 NBasis=    30 RedAO= T EigKep=  1.94D-01  NBF=    30
 NBsUse=    30 1.00D-06 EigRej= -1.00D+00 NBFU=    30
 ExpMin= 1.69D-01 ExpMax= 7.16D+01 ExpMxC= 7.16D+01 IAcc=1 IRadAn=         1 AccDes= 0.00D+00
 Harris functional with IExCor=  205 and IRadAn=       1 diagonalized for initial guess.
 HarFok:  IExCor=  205 AccDes= 0.00D+00 IRadAn=         1 IDoV= 1 UseB2=F ITyADJ=14
 ICtDFT=  3500011 ScaDFX=  1.000000  1.000000  1.000000  1.000000
 FoFCou: FMM=F IPFlag=           0 FMFlag=      100000 FMFlg1=           0
         NFxFlg=           0 DoJE=T BraDBF=F KetDBF=T FulRan=T
         wScrn=  0.000000 ICntrl=     500 IOpCl=  0 I1Cent=   200000004 NGrid=           0
         NMat0=    1 NMatS0=      1 NMatT0=    0 NMatD0=    1 NMtDS0=    0 NMtDT0=    0
 Petite list used in FoFCou.
 Keep R1 ints in memory in canonical form, NReq=952435.
 Requested convergence on RMS density matrix=1.00D-08 within 128 cycles.
 Requested convergence on MAX density matrix=1.00D-06.
 Requested convergence on             energy=1.00D-06.
 No special actions if energy rises.
 SCF Done:  E(RHF) =  -155.462443757     A.U. after    8 cycles
            NFock=  8  Conv=0.54D-08     -V/T= 2.0076

 **********************************************************************

            Population analysis using the SCF density.

 **********************************************************************

 Orbital symmetries:
       Occupied  (A) (A) (A) (A) (A) (A) (A) (A) (A) (A) (A) (A)
                 (A) (A) (A) (A) (A)
       Virtual   (A) (A) (A) (A) (A) (A) (A) (A) (A) (A) (A) (A)
                 (A)
 The electronic state is 1-A.
 Alpha  occ. eigenvalues --  -11.03587 -11.03558 -11.02900 -11.02898  -1.03565
 Alpha  occ. eigenvalues --   -0.94744  -0.82988  -0.76581  -0.62242  -0.56223
 Alpha  occ. eigenvalues --   -0.54996  -0.54257  -0.48748  -0.47679  -0.44482
 Alpha  occ. eigenvalues --   -0.43607  -0.40689
 Alpha virt. eigenvalues --    0.62224   0.63766   0.64659   0.68718   0.71292
 Alpha virt. eigenvalues --    0.75055   0.76062   0.77170   0.78867   0.79209
 Alpha virt. eigenvalues --    0.81119   0.81716   0.85547
          Condensed to atoms (all electrons):
               1          2          3          4          5          6
     1  C    4.736596   0.388048   0.388938   0.388938   0.360191  -0.022506
     2  H    0.388048   0.619439  -0.021991  -0.021991  -0.020788  -0.002152
     3  H    0.388938  -0.021991   0.619031  -0.022157  -0.021479  -0.002382
     4  H    0.388938  -0.021991  -0.022157   0.619031  -0.021479   0.001967
     5  C    0.360191  -0.020788  -0.021479  -0.021479   4.737033   0.389022
     6  H   -0.022506  -0.002152  -0.002382   0.001967   0.389022   0.629839
     7  H   -0.022506  -0.002152   0.001967  -0.002382   0.389022  -0.023752
     8  C   -0.024014   0.001371  -0.002545  -0.002545   0.362959  -0.022674
     9  H   -0.002341   0.000017  -0.000004   0.000253  -0.022674   0.001946
    10  H   -0.002341   0.000017   0.000253  -0.000004  -0.022674  -0.002374
    11  C    0.000786  -0.000019   0.000013   0.000013  -0.024014  -0.002341
    12  H    0.000013   0.000000   0.000002  -0.000001  -0.002545   0.000253
    13  H   -0.000019   0.000000   0.000000   0.000000   0.001371   0.000017
    14  H    0.000013   0.000000  -0.000001   0.000002  -0.002545  -0.000004
               7          8          9         10         11         12
     1  C   -0.022506  -0.024014  -0.002341  -0.002341   0.000786   0.000013
     2  H   -0.002152   0.001371   0.000017   0.000017  -0.000019   0.000000
     3  H    0.001967  -0.002545  -0.000004   0.000253   0.000013   0.000002
     4  H   -0.002382  -0.002545   0.000253  -0.000004   0.000013  -0.000001
     5  C    0.389022   0.362959  -0.022674  -0.022674  -0.024014  -0.002545
     6  H   -0.023752  -0.022674   0.001946  -0.002374  -0.002341   0.000253
     7  H    0.629839  -0.022674  -0.002374   0.001946  -0.002341  -0.000004
     8  C   -0.022674   4.737033   0.389022   0.389022   0.360191  -0.021479
     9  H   -0.002374   0.389022   0.629839  -0.023752  -0.022506   0.001967
    10  H    0.001946   0.389022  -0.023752   0.629839  -0.022506  -0.002382
    11  C   -0.002341   0.360191  -0.022506  -0.022506   4.736596   0.388938
    12  H   -0.000004  -0.021479   0.001967  -0.002382   0.388938   0.619031
    13  H    0.000017  -0.020788  -0.002152  -0.002152   0.388048  -0.021991
    14  H    0.000253  -0.021479  -0.002382   0.001967   0.388938  -0.022157
              13         14
     1  C   -0.000019   0.000013
     2  H    0.000000   0.000000
     3  H    0.000000  -0.000001
     4  H    0.000000   0.000002
     5  C    0.001371  -0.002545
     6  H    0.000017  -0.000004
     7  H    0.000017   0.000253
     8  C   -0.020788  -0.021479
     9  H   -0.002152  -0.002382
    10  H   -0.002152   0.001967
    11  C    0.388048   0.388938
    12  H   -0.021991  -0.022157
    13  H    0.619439  -0.021991
    14  H   -0.021991   0.619031
 Mulliken charges:
               1
     1  C   -0.189796
     2  H    0.060203
     3  H    0.060355
     4  H    0.060355
     5  C   -0.101400
     6  H    0.055142
     7  H    0.055142
     8  C   -0.101400
     9  H    0.055142
    10  H    0.055142
    11  C   -0.189796
    12  H    0.060355
    13  H    0.060203
    14  H    0.060355
 Sum of Mulliken charges =   0.00000
 Mulliken charges with hydrogens summed into heavy atoms:
               1
     1  C   -0.008883
     5  C    0.008883
     8  C    0.008883
    11  C   -0.008883
 Electronic spatial extent (au):  <R**2>=            411.4972
 Charge=              0.0000 electrons
 Dipole moment (field-independent basis, Debye):
    X=              0.0000    Y=              0.0000    Z=              0.0000  Tot=              0.0000
 Quadrupole moment (field-independent basis, Debye-Ang):
   XX=            -27.6500   YY=            -26.8009   ZZ=            -26.3302
   XY=              0.1785   XZ=              0.0000   YZ=              0.0000
 Traceless Quadrupole moment (field-independent basis, Debye-Ang):
   XX=             -0.7230   YY=              0.1262   ZZ=              0.5968
   XY=              0.1785   XZ=              0.0000   YZ=              0.0000
 Octapole moment (field-independent basis, Debye-Ang**2):
  XXX=              0.0000  YYY=              0.0000  ZZZ=              0.0000  XYY=              0.0000
  XXY=              0.0000  XXZ=              0.0000  XZZ=              0.0000  YZZ=              0.0000
  YYZ=              0.0000  XYZ=              0.0000
 Hexadecapole moment (field-independent basis, Debye-Ang**3):
 XXXX=           -410.4647 YYYY=            -78.9746 ZZZZ=            -48.2338 XXXY=              5.5123
 XXXZ=              0.0000 YYYX=              0.4928 YYYZ=              0.0000 ZZZX=              0.0000
 ZZZY=              0.0000 XXYY=            -78.8581 XXZZ=            -75.3316 YYZZ=            -19.1427
 XXYZ=              0.0000 YYXZ=              0.0000 ZZXY=             -1.6421
 N-N= 1.318273040507D+02 E-N=-6.243891596532D+02  KE= 1.542845391972D+02
 Calling FoFJK, ICntrl=      2127 FMM=F ISym2X=0 I1Cent= 0 IOpClX= 0 NMat=1 NMatS=1 NMatT=0.
 ***** Axes restored to original set *****
 -------------------------------------------------------------------
 Center     Atomic                   Forces (Hartrees/Bohr)
 Number     Number              X              Y              Z
 -------------------------------------------------------------------
      1        6           0.010065327    0.003951354    0.018717846
      2        1           0.002531683   -0.014679682   -0.004340733
      3        1           0.002908907    0.004076766   -0.013622568
      4        1          -0.014014218   -0.001906333   -0.003259381
      5        6          -0.019118646    0.008792680   -0.026144786
      6        1           0.016060093   -0.001449686    0.003123167
      7        1          -0.002120233   -0.007877233    0.014256041
      8        6           0.019118370   -0.008792870    0.026144902
      9        1          -0.016060020    0.001449831   -0.003123236
     10        1           0.002120387    0.007877231   -0.014256066
     11        6          -0.010064952   -0.003951257   -0.018718151
     12        1           0.014014176    0.001906312    0.003259684
     13        1          -0.002531695    0.014679667    0.004340785
     14        1          -0.002909180   -0.004076781    0.013622495
 -------------------------------------------------------------------
 Cartesian Forces:  Max     0.026144902 RMS     0.011537282

 GradGradGradGradGradGradGradGradGradGradGradGradGradGradGradGradGradGrad
 Berny optimization.
 FormGI is forming the generalized inverse of G from B-inverse, IUseBI=4.
 Internal  Forces:  Max     0.016060112 RMS     0.006837087
 Search for a local minimum.
 Step number   1 out of a maximum of   75 on scan point     1 out of    16
 All quantities printed in internal units (Hartrees-Bohrs-Radians)
 Mixed Optimization -- RFO/linear search
 Second derivative matrix not updated -- first step.
 ITU=  0
     Eigenvalues ---    0.00237   0.00237   0.01589   0.03840   0.04896
     Eigenvalues ---    0.04896   0.05720   0.05720   0.05720   0.05720
     Eigenvalues ---    0.07655   0.07655   0.10127   0.11701   0.16000
     Eigenvalues ---    0.16000   0.16000   0.16000   0.16000   0.16000
     Eigenvalues ---    0.21948   0.21948   0.28519   0.28519   0.28519
     Eigenvalues ---    0.37230   0.37230   0.37230   0.37230   0.37230
     Eigenvalues ---    0.37230   0.37230   0.37230   0.37230   0.37230
     Eigenvalues --- 1000.000001000.000001000.000001000.000001000.00000
     Eigenvalues --- 1000.000001000.000001000.000001000.000001000.00000
     Eigenvalues --- 1000.000001000.000001000.000001000.000001000.00000
     Eigenvalues --- 1000.000001000.000001000.000001000.000001000.00000
     Eigenvalues --- 1000.000001000.000001000.000001000.000001000.00000
     Eigenvalues --- 1000.000001000.000001000.000001000.000001000.00000
 RFO step:  Lambda=-1.04802484D-02 EMin= 2.36824061D-03
 Linear search not attempted -- first point.
 Iteration  1 RMS(Cart)=  0.05368127 RMS(Int)=  0.00065845
 Iteration  2 RMS(Cart)=  0.00065743 RMS(Int)=  0.00024002
 Iteration  3 RMS(Cart)=  0.00000030 RMS(Int)=  0.00024002
 Iteration  1 RMS(Cart)=  0.00000000 RMS(Int)=  0.00000000
 Variable       Old X    -DE/DX   Delta X   Delta X   Delta X     New X
                                 (Linear)    (Quad)   (Total)
    R1        2.02201   0.01468   0.00000   0.03836   0.03836   2.06037
    R2        2.02201   0.01401   0.00000   0.03661   0.03661   2.05862
    R3        2.02201   0.01401   0.00000   0.03661   0.03661   2.05862
    R4        2.91018   0.00558   0.00000   0.01888   0.01888   2.92906
    R5        2.02201   0.01606   0.00000   0.04196   0.04196   2.06396
    R6        2.02201   0.01606   0.00000   0.04196   0.04196   2.06396
    R7        2.91018   0.00734   0.00000   0.02484   0.02484   2.93501
    R8        2.02201   0.01606   0.00000   0.04196   0.04196   2.06396
    R9        2.02201   0.01606   0.00000   0.04196   0.04196   2.06396
   R10        2.91018   0.00558   0.00000   0.01888   0.01888   2.92906
   R11        2.02201   0.01401   0.00000   0.03661   0.03661   2.05862
   R12        2.02201   0.01468   0.00000   0.03836   0.03836   2.06037
   R13        2.02201   0.01401   0.00000   0.03661   0.03661   2.05862
    A1        1.91063  -0.00446   0.00000  -0.02516  -0.02555   1.88508
    A2        1.91063  -0.00446   0.00000  -0.02516  -0.02555   1.88508
    A3        1.91063   0.00568   0.00000   0.03428   0.03388   1.94451
    A4        1.91063  -0.00379   0.00000  -0.02418  -0.02433   1.88631
    A5        1.91063   0.00351   0.00000   0.02011   0.01983   1.93046
    A6        1.91063   0.00351   0.00000   0.02011   0.01983   1.93046
    A7        1.91063  -0.00289   0.00000  -0.00502  -0.00538   1.90525
    A8        1.91063  -0.00289   0.00000  -0.00502  -0.00538   1.90525
    A9        1.91063   0.01216   0.00000   0.06436   0.06386   1.97449
   A10        1.91063   0.00008   0.00000  -0.03656  -0.03687   1.87377
   A11        1.91063  -0.00323   0.00000  -0.00888  -0.00941   1.90122
   A12        1.91063  -0.00323   0.00000  -0.00888  -0.00941   1.90122
   A13        1.91063  -0.00323   0.00000  -0.00888  -0.00941   1.90122
   A14        1.91063  -0.00323   0.00000  -0.00888  -0.00941   1.90122
   A15        1.91063   0.01216   0.00000   0.06436   0.06386   1.97449
   A16        1.91063   0.00008   0.00000  -0.03656  -0.03687   1.87377
   A17        1.91063  -0.00289   0.00000  -0.00502  -0.00538   1.90525
   A18        1.91063  -0.00289   0.00000  -0.00502  -0.00538   1.90525
   A19        1.91063   0.00351   0.00000   0.02011   0.01983   1.93046
   A20        1.91063   0.00568   0.00000   0.03428   0.03388   1.94451
   A21        1.91063   0.00351   0.00000   0.02011   0.01983   1.93046
   A22        1.91063  -0.00446   0.00000  -0.02516  -0.02555   1.88508
   A23        1.91063  -0.00379   0.00000  -0.02418  -0.02433   1.88631
   A24        1.91063  -0.00446   0.00000  -0.02516  -0.02555   1.88508
    D1        1.04720  -0.00172   0.00000  -0.02546  -0.02553   1.02167
    D2       -1.04720   0.00172   0.00000   0.02546   0.02553  -1.02167
    D3       -3.14159   0.00000   0.00000   0.00000   0.00000   3.14159
    D4       -1.04720  -0.00189   0.00000  -0.02795  -0.02808  -1.07528
    D5       -3.14159   0.00156   0.00000   0.02297   0.02297  -3.11862
    D6        1.04720  -0.00017   0.00000  -0.00249  -0.00256   1.04464
    D7        3.14159  -0.00156   0.00000  -0.02297  -0.02297   3.11862
    D8        1.04720   0.00189   0.00000   0.02795   0.02808   1.07528
    D9       -1.04720   0.00017   0.00000   0.00249   0.00255  -1.04464
   D10       -0.00003   0.00000   0.00000   0.00000   0.00000  -0.00003
   D11        1.04718  -0.00193   0.00000  -0.02783  -0.02780   1.01938
   D12       -1.04722   0.00193   0.00000   0.02783   0.02780  -1.01942
   D13        3.14157   0.00000   0.00000   0.00000   0.00000   3.14157
   D14        3.14157   0.00000   0.00000   0.00000   0.00000   3.14158
   D15        1.04718   0.00386   0.00000   0.05566   0.05560   1.10278
   D16       -1.04722   0.00193   0.00000   0.02783   0.02780  -1.01942
   D17       -1.04722  -0.00386   0.00000  -0.05565  -0.05559  -1.10281
   D18        3.14157   0.00000   0.00000   0.00000   0.00000   3.14158
   D19        1.04718  -0.00193   0.00000  -0.02783  -0.02780   1.01938
   D20        1.04719  -0.00017   0.00000  -0.00249  -0.00255   1.04464
   D21        3.14159   0.00000   0.00000   0.00000   0.00000   3.14159
   D22       -1.04720   0.00017   0.00000   0.00249   0.00256  -1.04465
   D23        3.14159   0.00156   0.00000   0.02297   0.02297  -3.11862
   D24       -1.04720   0.00172   0.00000   0.02546   0.02553  -1.02167
   D25        1.04719   0.00189   0.00000   0.02795   0.02808   1.07528
   D26       -1.04720  -0.00189   0.00000  -0.02795  -0.02808  -1.07529
   D27        1.04719  -0.00172   0.00000  -0.02546  -0.02553   1.02166
   D28        3.14159  -0.00156   0.00000  -0.02297  -0.02297   3.11861
         Item               Value     Threshold  Converged?
 Maximum Force            0.016060     0.000450     NO 
 RMS     Force            0.006890     0.000300     NO 
 Maximum Displacement     0.121186     0.001800     NO 
 RMS     Displacement     0.053165     0.001200     NO 
 Predicted change in Energy=-5.524951D-03
 GradGradGradGradGradGradGradGradGradGradGradGradGradGradGradGradGradGrad

                          Input orientation:                          
 ---------------------------------------------------------------------
 Center     Atomic      Atomic             Coordinates (Angstroms)
 Number     Number       Type             X           Y           Z
 ---------------------------------------------------------------------
      1          6           0       -3.026777    1.053336   -0.027305
      2          1           0       -2.670007    0.023131   -0.039470
      3          1           0       -2.675737    1.542038   -0.935422
      4          1           0       -4.115642    1.032973   -0.053669
      5          6           0       -2.525558    1.810957    1.228585
      6          1           0       -1.433551    1.796917    1.243720
      7          1           0       -2.870598    1.288863    2.123723
      8          6           0       -3.011404    3.285027    1.286225
      9          1           0       -4.103411    3.299067    1.271073
     10          1           0       -2.666349    3.807126    0.391096
     11          6           0       -2.510207    4.042640    2.542129
     12          1           0       -1.421343    4.062998    2.568513
     13          1           0       -2.866973    5.072846    2.554291
     14          1           0       -2.861266    3.553935    3.450237
 ---------------------------------------------------------------------
                    Distance matrix (angstroms):
                    1          2          3          4          5
     1  C    0.000000
     2  H    1.090300   0.000000
     3  H    1.089374   1.763474   0.000000
     4  H    1.089374   1.763474   1.763508   0.000000
     5  C    1.549991   2.196623   2.185818   2.185818   0.000000
     6  H    2.169513   2.514303   2.521240   3.075783   1.092202
     7  H    2.169512   2.514302   3.075782   2.521239   1.092202
     8  C    2.589603   3.537511   2.843659   2.843659   1.553143
     9  H    2.808601   3.808402   3.161333   2.624932   2.169309
    10  H    2.808617   3.808414   2.624950   3.161358   2.169309
    11  C    3.975522   4.779816   4.286464   4.286453   2.589603
    12  H    4.286463   4.968025   4.495143   4.828678   2.843658
    13  H    4.779816   5.680318   4.968025   4.968018   3.537511
    14  H    4.286454   4.968018   4.828680   4.495115   2.843661
                    6          7          8          9         10
     6  H    0.000000
     7  H    1.760009   0.000000
     8  C    2.169309   2.169309   0.000000
     9  H    3.063553   2.507541   1.092202   0.000000
    10  H    2.507528   3.063554   1.092202   1.760009   0.000000
    11  C    2.808617   2.808601   1.549991   2.169512   2.169513
    12  H    2.624948   3.161331   2.185818   3.075782   2.521241
    13  H    3.808413   3.808403   2.196623   2.514303   2.514302
    14  H    3.161360   2.624934   2.185818   2.521237   3.075782
                   11         12         13         14
    11  C    0.000000
    12  H    1.089374   0.000000
    13  H    1.090300   1.763474   0.000000
    14  H    1.089374   1.763508   1.763474   0.000000
 Stoichiometry    C4H10
 Framework group  C1[X(C4H10)]
 Deg. of freedom    36
 Full point group                 C1      NOp   1
 Largest Abelian subgroup         C1      NOp   1
 Largest concise Abelian subgroup C1      NOp   1
                         Standard orientation:                         
 ---------------------------------------------------------------------
 Center     Atomic      Atomic             Coordinates (Angstroms)
 Number     Number       Type             X           Y           Z
 ---------------------------------------------------------------------
      1          6           0       -1.983887    0.124035    0.000006
      2          1           0       -2.768782   -0.632731    0.000006
      3          1           0       -2.118978    0.749339   -0.881743
      4          1           0       -2.118967    0.749327    0.881765
      5          6           0       -0.574952   -0.522009   -0.000007
      6          1           0       -0.473504   -1.160913   -0.880016
      7          1           0       -0.473494   -1.160924    0.879993
      8          6           0        0.574952    0.522009   -0.000007
      9          1           0        0.473494    1.160924    0.879993
     10          1           0        0.473504    1.160913   -0.880016
     11          6           0        1.983887   -0.124035    0.000006
     12          1           0        2.118977   -0.749342   -0.881741
     13          1           0        2.768782    0.632731    0.000003
     14          1           0        2.118968   -0.749324    0.881767
 ---------------------------------------------------------------------
 Rotational constants (GHZ):     23.3264804      3.5314144      3.3191266
 Standard basis: STO-3G (5D, 7F)
 There are    30 symmetry adapted cartesian basis functions of A   symmetry.
 There are    30 symmetry adapted basis functions of A   symmetry.
    30 basis functions,    90 primitive gaussians,    30 cartesian basis functions
    17 alpha electrons       17 beta electrons
       nuclear repulsion energy       129.4912061334 Hartrees.
 NAtoms=   14 NActive=   14 NUniq=   14 SFac= 1.00D+00 NAtFMM=   60 NAOKFM=F Big=F
 Integral buffers will be    131072 words long.
 Raffenetti 1 integral format.
 Two-electron integral symmetry is turned on.
 One-electron integrals computed using PRISM.
 NBasis=    30 RedAO= T EigKep=  2.05D-01  NBF=    30
 NBsUse=    30 1.00D-06 EigRej= -1.00D+00 NBFU=    30
 Initial guess from the checkpoint file:  "butane.chk"
 B after Tr=     0.000000    0.000000    0.000000
         Rot=    1.000000    0.000000    0.000000    0.000828 Ang=  -0.09 deg.
 ExpMin= 1.69D-01 ExpMax= 7.16D+01 ExpMxC= 7.16D+01 IAcc=1 IRadAn=         1 AccDes= 0.00D+00
 Harris functional with IExCor=  205 and IRadAn=       1 diagonalized for initial guess.
 HarFok:  IExCor=  205 AccDes= 0.00D+00 IRadAn=         1 IDoV= 1 UseB2=F ITyADJ=14
 ICtDFT=  3500011 ScaDFX=  1.000000  1.000000  1.000000  1.000000
 FoFCou: FMM=F IPFlag=           0 FMFlag=      100000 FMFlg1=           0
         NFxFlg=           0 DoJE=T BraDBF=F KetDBF=T FulRan=T
         wScrn=  0.000000 ICntrl=     500 IOpCl=  0 I1Cent=   200000004 NGrid=           0
         NMat0=    1 NMatS0=      1 NMatT0=    0 NMatD0=    1 NMtDS0=    0 NMtDT0=    0
 Petite list used in FoFCou.
 Keep R1 ints in memory in canonical form, NReq=952405.
 Requested convergence on RMS density matrix=1.00D-08 within 128 cycles.
 Requested convergence on MAX density matrix=1.00D-06.
 Requested convergence on             energy=1.00D-06.
 No special actions if energy rises.
 SCF Done:  E(RHF) =  -155.466212997     A.U. after    7 cycles
            NFock=  7  Conv=0.92D-08     -V/T= 2.0091
 Calling FoFJK, ICntrl=      2127 FMM=F ISym2X=0 I1Cent= 0 IOpClX= 0 NMat=1 NMatS=1 NMatT=0.
 ***** Axes restored to original set *****
 -------------------------------------------------------------------
 Center     Atomic                   Forces (Hartrees/Bohr)
 Number     Number              X              Y              Z
 -------------------------------------------------------------------
      1        6          -0.000888836    0.003375109    0.000496684
      2        1          -0.000158846    0.004007095    0.002054008
      3        1          -0.000961099   -0.001095320    0.002368336
      4        1           0.002770435    0.000223961    0.000083305
      5        6           0.000874355   -0.000288867    0.001261411
      6        1          -0.003092527   -0.000596672    0.000371105
      7        1           0.001615108    0.001067694   -0.002511695
      8        6          -0.000874588    0.000288804   -0.001261250
      9        1           0.003092496    0.000596648   -0.000371032
     10        1          -0.001615190   -0.001067716    0.002511686
     11        6           0.000889132   -0.003375019   -0.000496861
     12        1          -0.002770433   -0.000223928   -0.000083330
     13        1           0.000158865   -0.004007078   -0.002054035
     14        1           0.000961129    0.001095290   -0.002368333
 -------------------------------------------------------------------
 Cartesian Forces:  Max     0.004007095 RMS     0.001835466

 GradGradGradGradGradGradGradGradGradGradGradGradGradGradGradGradGradGrad
 Berny optimization.
 Using GEDIIS/GDIIS optimizer.
 FormGI is forming the generalized inverse of G from B-inverse, IUseBI=4.
 Internal  Forces:  Max     0.007481927 RMS     0.002293999
 Search for a local minimum.
 Step number   2 out of a maximum of   75 on scan point     1 out of    16
 All quantities printed in internal units (Hartrees-Bohrs-Radians)
 Mixed Optimization -- RFO/linear search
 Update second derivatives using D2CorX and points    1    2
 DE= -3.77D-03 DEPred=-5.52D-03 R= 6.82D-01
 TightC=F SS=  1.41D+00  RLast= 2.30D-01 DXNew= 5.0454D-01 6.8972D-01
 Trust test= 6.82D-01 RLast= 2.30D-01 DXMaxT set to 5.05D-01
 ITU=  1  0
 Use linear search instead of GDIIS.
     Eigenvalues ---    0.00237   0.00237   0.01423   0.03418   0.04755
     Eigenvalues ---    0.04819   0.05415   0.05415   0.05504   0.05520
     Eigenvalues ---    0.08320   0.08326   0.10680   0.12208   0.15718
     Eigenvalues ---    0.16000   0.16000   0.16000   0.16000   0.16538
     Eigenvalues ---    0.21950   0.23032   0.28483   0.28519   0.29475
     Eigenvalues ---    0.37184   0.37230   0.37230   0.37230   0.37230
     Eigenvalues ---    0.37230   0.37230   0.37230   0.37230   0.44331
     Eigenvalues --- 1000.000001000.000001000.000001000.000001000.00000
     Eigenvalues --- 1000.000001000.000001000.000001000.000001000.00000
     Eigenvalues --- 1000.000001000.000001000.000001000.000001000.00000
     Eigenvalues --- 1000.000001000.000001000.000001000.000001000.00000
     Eigenvalues --- 1000.000001000.000001000.000001000.000001000.00000
     Eigenvalues --- 1000.000001000.000001000.000001000.000001000.00000
 RFO step:  Lambda=-3.47736100D-04 EMin= 2.36824062D-03
 Quartic linear search produced a step of -0.21361.
 Iteration  1 RMS(Cart)=  0.01651060 RMS(Int)=  0.00006383
 Iteration  2 RMS(Cart)=  0.00003561 RMS(Int)=  0.00004921
 Iteration  3 RMS(Cart)=  0.00000000 RMS(Int)=  0.00004921
 Iteration  1 RMS(Cart)=  0.00000000 RMS(Int)=  0.00000000
 Variable       Old X    -DE/DX   Delta X   Delta X   Delta X     New X
                                 (Linear)    (Quad)   (Total)
    R1        2.06037  -0.00386  -0.00819   0.00120  -0.00699   2.05338
    R2        2.05862  -0.00278  -0.00782   0.00307  -0.00475   2.05387
    R3        2.05862  -0.00278  -0.00782   0.00307  -0.00475   2.05387
    R4        2.92906  -0.00748  -0.00403  -0.01601  -0.02004   2.90902
    R5        2.06396  -0.00308  -0.00896   0.00373  -0.00523   2.05873
    R6        2.06396  -0.00308  -0.00896   0.00373  -0.00523   2.05873
    R7        2.93501  -0.00646  -0.00531  -0.01173  -0.01703   2.91798
    R8        2.06396  -0.00308  -0.00896   0.00373  -0.00523   2.05873
    R9        2.06396  -0.00308  -0.00896   0.00373  -0.00523   2.05873
   R10        2.92906  -0.00748  -0.00403  -0.01601  -0.02004   2.90902
   R11        2.05862  -0.00278  -0.00782   0.00307  -0.00475   2.05387
   R12        2.06037  -0.00386  -0.00819   0.00120  -0.00699   2.05338
   R13        2.05862  -0.00278  -0.00782   0.00307  -0.00475   2.05387
    A1        1.88508   0.00132   0.00546  -0.00136   0.00417   1.88925
    A2        1.88508   0.00132   0.00546  -0.00136   0.00417   1.88925
    A3        1.94451  -0.00340  -0.00724  -0.01015  -0.01731   1.92720
    A4        1.88631  -0.00005   0.00520  -0.00304   0.00216   1.88847
    A5        1.93046   0.00047  -0.00424   0.00784   0.00364   1.93411
    A6        1.93046   0.00047  -0.00424   0.00784   0.00364   1.93411
    A7        1.90525   0.00119   0.00115   0.00143   0.00267   1.90793
    A8        1.90525   0.00119   0.00115   0.00143   0.00267   1.90793
    A9        1.97449  -0.00442  -0.01364  -0.00070  -0.01422   1.96027
   A10        1.87377  -0.00103   0.00788  -0.01159  -0.00367   1.87009
   A11        1.90122   0.00161   0.00201   0.00439   0.00650   1.90772
   A12        1.90122   0.00161   0.00201   0.00439   0.00650   1.90772
   A13        1.90122   0.00161   0.00201   0.00439   0.00650   1.90772
   A14        1.90122   0.00161   0.00201   0.00439   0.00650   1.90772
   A15        1.97449  -0.00442  -0.01364  -0.00070  -0.01422   1.96027
   A16        1.87377  -0.00103   0.00788  -0.01159  -0.00367   1.87009
   A17        1.90525   0.00119   0.00115   0.00143   0.00267   1.90793
   A18        1.90525   0.00119   0.00115   0.00143   0.00267   1.90793
   A19        1.93046   0.00047  -0.00424   0.00784   0.00364   1.93411
   A20        1.94451  -0.00340  -0.00724  -0.01015  -0.01731   1.92720
   A21        1.93046   0.00047  -0.00424   0.00784   0.00364   1.93411
   A22        1.88508   0.00132   0.00546  -0.00136   0.00417   1.88925
   A23        1.88631  -0.00005   0.00520  -0.00304   0.00216   1.88847
   A24        1.88508   0.00132   0.00546  -0.00136   0.00417   1.88925
    D1        1.02167   0.00006   0.00545  -0.00615  -0.00069   1.02098
    D2       -1.02167  -0.00006  -0.00545   0.00615   0.00069  -1.02098
    D3        3.14159   0.00000   0.00000   0.00000   0.00000   3.14159
    D4       -1.07528   0.00033   0.00600  -0.00298   0.00305  -1.07223
    D5       -3.11862   0.00022  -0.00491   0.00932   0.00442  -3.11420
    D6        1.04464   0.00027   0.00055   0.00317   0.00374   1.04838
    D7        3.11862  -0.00022   0.00491  -0.00933  -0.00442   3.11419
    D8        1.07528  -0.00033  -0.00600   0.00298  -0.00305   1.07223
    D9       -1.04464  -0.00027  -0.00055  -0.00317  -0.00374  -1.04838
   D10       -0.00003   0.00000   0.00000   0.00000   0.00000  -0.00003
   D11        1.01938   0.00028   0.00594  -0.00448   0.00146   1.02085
   D12       -1.01942  -0.00028  -0.00594   0.00448  -0.00146  -1.02088
   D13        3.14157   0.00000   0.00000   0.00000   0.00000   3.14157
   D14        3.14158   0.00000   0.00000   0.00000   0.00000   3.14158
   D15        1.10278  -0.00056  -0.01188   0.00896  -0.00293   1.09985
   D16       -1.01942  -0.00028  -0.00594   0.00448  -0.00146  -1.02088
   D17       -1.10281   0.00056   0.01188  -0.00896   0.00293  -1.09988
   D18        3.14158   0.00000   0.00000   0.00000   0.00000   3.14158
   D19        1.01938   0.00028   0.00594  -0.00448   0.00146   1.02085
   D20        1.04464   0.00027   0.00055   0.00318   0.00374   1.04838
   D21        3.14159   0.00000   0.00000   0.00000   0.00000   3.14159
   D22       -1.04465  -0.00027  -0.00055  -0.00317  -0.00374  -1.04838
   D23       -3.11862   0.00022  -0.00491   0.00933   0.00442  -3.11420
   D24       -1.02167  -0.00006  -0.00545   0.00615   0.00069  -1.02098
   D25        1.07528  -0.00033  -0.00600   0.00298  -0.00305   1.07223
   D26       -1.07529   0.00033   0.00600  -0.00298   0.00305  -1.07223
   D27        1.02166   0.00006   0.00545  -0.00615  -0.00068   1.02098
   D28        3.11861  -0.00022   0.00491  -0.00932  -0.00442   3.11419
         Item               Value     Threshold  Converged?
 Maximum Force            0.007482     0.000450     NO 
 RMS     Force            0.002312     0.000300     NO 
 Maximum Displacement     0.045327     0.001800     NO 
 RMS     Displacement     0.016523     0.001200     NO 
 Predicted change in Energy=-4.574146D-04
 GradGradGradGradGradGradGradGradGradGradGradGradGradGradGradGradGradGrad

                          Input orientation:                          
 ---------------------------------------------------------------------
 Center     Atomic      Atomic             Coordinates (Angstroms)
 Number     Number       Type             X           Y           Z
 ---------------------------------------------------------------------
      1          6           0       -3.026792    1.071975   -0.016569
      2          1           0       -2.665735    0.047117   -0.018646
      3          1           0       -2.675419    1.558401   -0.922764
      4          1           0       -4.113126    1.050113   -0.042356
      5          6           0       -2.524131    1.815994    1.233823
      6          1           0       -1.434942    1.799206    1.249607
      7          1           0       -2.866409    1.293126    2.126192
      8          6           0       -3.012831    3.279989    1.280987
      9          1           0       -4.102020    3.296777    1.265186
     10          1           0       -2.670539    3.802862    0.388627
     11          6           0       -2.510191    4.024001    2.531392
     12          1           0       -1.423859    4.045860    2.557201
     13          1           0       -2.871246    5.048860    2.533468
     14          1           0       -2.861583    3.537571    3.437578
 ---------------------------------------------------------------------
                    Distance matrix (angstroms):
                    1          2          3          4          5
     1  C    0.000000
     2  H    1.086601   0.000000
     3  H    1.086859   1.761108   0.000000
     4  H    1.086859   1.761108   1.760816   0.000000
     5  C    1.539387   2.172017   2.177180   2.177179   0.000000
     6  H    2.160105   2.488602   2.513159   3.066428   1.089434
     7  H    2.160105   2.488602   3.066427   2.513157   1.089434
     8  C    2.561088   3.501569   2.816777   2.816777   1.544129
     9  H    2.783658   3.777755   3.137558   2.599479   2.164125
    10  H    2.783675   3.777767   2.599496   3.137584   2.164125
    11  C    3.933629   4.726785   4.247079   4.247068   2.561088
    12  H    4.247079   4.916014   4.456906   4.792114   2.816776
    13  H    4.726785   5.618982   4.916014   4.916006   3.501569
    14  H    4.247068   4.916006   4.792114   4.456876   2.816778
                    6          7          8          9         10
     6  H    0.000000
     7  H    1.753173   0.000000
     8  C    2.164125   2.164125   0.000000
     9  H    3.058802   2.506529   1.089434   0.000000
    10  H    2.506517   3.058802   1.089434   1.753173   0.000000
    11  C    2.783675   2.783658   1.539387   2.160105   2.160106
    12  H    2.599495   3.137557   2.177180   3.066427   2.513160
    13  H    3.777766   3.777755   2.172017   2.488602   2.488601
    14  H    3.137584   2.599479   2.177179   2.513156   3.066428
                   11         12         13         14
    11  C    0.000000
    12  H    1.086859   0.000000
    13  H    1.086601   1.761108   0.000000
    14  H    1.086859   1.760816   1.761108   0.000000
 Stoichiometry    C4H10
 Framework group  C1[X(C4H10)]
 Deg. of freedom    36
 Full point group                 C1      NOp   1
 Largest Abelian subgroup         C1      NOp   1
 Largest concise Abelian subgroup C1      NOp   1
                         Standard orientation:                         
 ---------------------------------------------------------------------
 Center     Atomic      Atomic             Coordinates (Angstroms)
 Number     Number       Type             X           Y           Z
 ---------------------------------------------------------------------
      1          6           0       -1.962822    0.125259    0.000006
      2          1           0       -2.736053   -0.638164    0.000005
      3          1           0       -2.099241    0.747789   -0.880396
      4          1           0       -2.099230    0.747776    0.880420
      5          6           0       -0.567040   -0.523975   -0.000007
      6          1           0       -0.466869   -1.163052   -0.876598
      7          1           0       -0.466858   -1.163063    0.876575
      8          6           0        0.567040    0.523975   -0.000007
      9          1           0        0.466858    1.163062    0.876575
     10          1           0        0.466869    1.163052   -0.876598
     11          6           0        1.962822   -0.125259    0.000006
     12          1           0        2.099241   -0.747790   -0.880396
     13          1           0        2.736053    0.638164    0.000004
     14          1           0        2.099231   -0.747775    0.880421
 ---------------------------------------------------------------------
 Rotational constants (GHZ):     23.2751470      3.6062615      3.3825487
 Standard basis: STO-3G (5D, 7F)
 There are    30 symmetry adapted cartesian basis functions of A   symmetry.
 There are    30 symmetry adapted basis functions of A   symmetry.
    30 basis functions,    90 primitive gaussians,    30 cartesian basis functions
    17 alpha electrons       17 beta electrons
       nuclear repulsion energy       130.3083697896 Hartrees.
 NAtoms=   14 NActive=   14 NUniq=   14 SFac= 1.00D+00 NAtFMM=   60 NAOKFM=F Big=F
 Integral buffers will be    131072 words long.
 Raffenetti 1 integral format.
 Two-electron integral symmetry is turned on.
 One-electron integrals computed using PRISM.
 NBasis=    30 RedAO= T EigKep=  2.01D-01  NBF=    30
 NBsUse=    30 1.00D-06 EigRej= -1.00D+00 NBFU=    30
 Initial guess from the checkpoint file:  "butane.chk"
 B after Tr=     0.000000    0.000000    0.000000
         Rot=    1.000000    0.000000    0.000000   -0.000327 Ang=  -0.04 deg.
 ExpMin= 1.69D-01 ExpMax= 7.16D+01 ExpMxC= 7.16D+01 IAcc=1 IRadAn=         1 AccDes= 0.00D+00
 Harris functional with IExCor=  205 and IRadAn=       1 diagonalized for initial guess.
 HarFok:  IExCor=  205 AccDes= 0.00D+00 IRadAn=         1 IDoV= 1 UseB2=F ITyADJ=14
 ICtDFT=  3500011 ScaDFX=  1.000000  1.000000  1.000000  1.000000
 FoFCou: FMM=F IPFlag=           0 FMFlag=      100000 FMFlg1=           0
         NFxFlg=           0 DoJE=T BraDBF=F KetDBF=T FulRan=T
         wScrn=  0.000000 ICntrl=     500 IOpCl=  0 I1Cent=   200000004 NGrid=           0
         NMat0=    1 NMatS0=      1 NMatT0=    0 NMatD0=    1 NMtDS0=    0 NMtDT0=    0
 Petite list used in FoFCou.
 Keep R1 ints in memory in canonical form, NReq=952435.
 Requested convergence on RMS density matrix=1.00D-08 within 128 cycles.
 Requested convergence on MAX density matrix=1.00D-06.
 Requested convergence on             energy=1.00D-06.
 No special actions if energy rises.
 SCF Done:  E(RHF) =  -155.466627911     A.U. after    7 cycles
            NFock=  7  Conv=0.41D-08     -V/T= 2.0088
 Calling FoFJK, ICntrl=      2127 FMM=F ISym2X=0 I1Cent= 0 IOpClX= 0 NMat=1 NMatS=1 NMatT=0.
 ***** Axes restored to original set *****
 -------------------------------------------------------------------
 Center     Atomic                   Forces (Hartrees/Bohr)
 Number     Number              X              Y              Z
 -------------------------------------------------------------------
      1        6          -0.000237482   -0.001521456   -0.001266512
      2        1          -0.000387199    0.000365605   -0.000421230
      3        1          -0.000262677   -0.000294899    0.000691099
      4        1           0.000790854    0.000077568    0.000045951
      5        6           0.000447492   -0.000103096    0.000671534
      6        1          -0.000842007    0.000092290    0.000049462
      7        1           0.000277551    0.000488107   -0.000636134
      8        6          -0.000447734    0.000103009   -0.000671387
      9        1           0.000842010   -0.000092294   -0.000049446
     10        1          -0.000277565   -0.000488107    0.000636124
     11        6           0.000237731    0.001521547    0.001266363
     12        1          -0.000790855   -0.000077565   -0.000045965
     13        1           0.000387191   -0.000365607    0.000421234
     14        1           0.000262689    0.000294898   -0.000691095
 -------------------------------------------------------------------
 Cartesian Forces:  Max     0.001521547 RMS     0.000609652

 GradGradGradGradGradGradGradGradGradGradGradGradGradGradGradGradGradGrad
 Berny optimization.
 Using GEDIIS/GDIIS optimizer.
 FormGI is forming the generalized inverse of G from B-inverse, IUseBI=4.
 Internal  Forces:  Max     0.001467416 RMS     0.000476857
 Search for a local minimum.
 Step number   3 out of a maximum of   75 on scan point     1 out of    16
 All quantities printed in internal units (Hartrees-Bohrs-Radians)
 Mixed Optimization -- En-DIIS/RFO-DIIS
 Update second derivatives using D2CorX and points    1    2    3
 DE= -4.15D-04 DEPred=-4.57D-04 R= 9.07D-01
 TightC=F SS=  1.41D+00  RLast= 5.43D-02 DXNew= 8.4853D-01 1.6293D-01
 Trust test= 9.07D-01 RLast= 5.43D-02 DXMaxT set to 5.05D-01
 ITU=  1  1  0
 Use linear search instead of GDIIS.
     Eigenvalues ---    0.00237   0.00237   0.01447   0.03482   0.04765
     Eigenvalues ---    0.04841   0.05473   0.05516   0.05516   0.05545
     Eigenvalues ---    0.08196   0.08222   0.10580   0.12117   0.15909
     Eigenvalues ---    0.16000   0.16000   0.16000   0.16000   0.16809
     Eigenvalues ---    0.21922   0.23290   0.28513   0.28519   0.35801
     Eigenvalues ---    0.37182   0.37227   0.37230   0.37230   0.37230
     Eigenvalues ---    0.37230   0.37230   0.37230   0.37230   0.40933
     Eigenvalues --- 1000.000001000.000001000.000001000.000001000.00000
     Eigenvalues --- 1000.000001000.000001000.000001000.000001000.00000
     Eigenvalues --- 1000.000001000.000001000.000001000.000001000.00000
     Eigenvalues --- 1000.000001000.000001000.000001000.000001000.00000
     Eigenvalues --- 1000.000001000.000001000.000001000.000001000.00000
     Eigenvalues --- 1000.000001000.000001000.000001000.000001000.00000
 RFO step:  Lambda=-3.37105820D-05 EMin= 2.36824061D-03
 Quartic linear search produced a step of -0.10284.
 Iteration  1 RMS(Cart)=  0.00270267 RMS(Int)=  0.00000157
 Iteration  2 RMS(Cart)=  0.00000170 RMS(Int)=  0.00000079
 Iteration  3 RMS(Cart)=  0.00000000 RMS(Int)=  0.00000079
 Iteration  1 RMS(Cart)=  0.00000000 RMS(Int)=  0.00000000
 Variable       Old X    -DE/DX   Delta X   Delta X   Delta X     New X
                                 (Linear)    (Quad)   (Total)
    R1        2.05338  -0.00047   0.00072  -0.00236  -0.00164   2.05174
    R2        2.05387  -0.00079   0.00049  -0.00275  -0.00227   2.05160
    R3        2.05387  -0.00079   0.00049  -0.00275  -0.00227   2.05160
    R4        2.90902   0.00147   0.00206   0.00133   0.00339   2.91241
    R5        2.05873  -0.00084   0.00054  -0.00297  -0.00243   2.05630
    R6        2.05873  -0.00084   0.00054  -0.00297  -0.00243   2.05630
    R7        2.91798   0.00081   0.00175  -0.00025   0.00150   2.91948
    R8        2.05873  -0.00084   0.00054  -0.00297  -0.00243   2.05630
    R9        2.05873  -0.00084   0.00054  -0.00297  -0.00243   2.05630
   R10        2.90902   0.00147   0.00206   0.00133   0.00339   2.91241
   R11        2.05387  -0.00079   0.00049  -0.00275  -0.00227   2.05160
   R12        2.05338  -0.00047   0.00072  -0.00236  -0.00164   2.05174
   R13        2.05387  -0.00079   0.00049  -0.00275  -0.00227   2.05160
    A1        1.88925  -0.00022  -0.00043   0.00017  -0.00026   1.88900
    A2        1.88925  -0.00022  -0.00043   0.00017  -0.00026   1.88900
    A3        1.92720   0.00077   0.00178   0.00202   0.00380   1.93101
    A4        1.88847   0.00005  -0.00022  -0.00052  -0.00074   1.88773
    A5        1.93411  -0.00020  -0.00037  -0.00092  -0.00130   1.93281
    A6        1.93411  -0.00020  -0.00037  -0.00092  -0.00130   1.93281
    A7        1.90793  -0.00020  -0.00027   0.00027  -0.00001   1.90792
    A8        1.90793  -0.00020  -0.00027   0.00027  -0.00001   1.90792
    A9        1.96027   0.00089   0.00146   0.00153   0.00299   1.96327
   A10        1.87009   0.00013   0.00038  -0.00148  -0.00110   1.86899
   A11        1.90772  -0.00032  -0.00067  -0.00037  -0.00103   1.90669
   A12        1.90772  -0.00032  -0.00067  -0.00037  -0.00103   1.90669
   A13        1.90772  -0.00032  -0.00067  -0.00037  -0.00103   1.90669
   A14        1.90772  -0.00032  -0.00067  -0.00037  -0.00103   1.90669
   A15        1.96027   0.00089   0.00146   0.00153   0.00299   1.96327
   A16        1.87009   0.00013   0.00038  -0.00148  -0.00110   1.86899
   A17        1.90793  -0.00020  -0.00027   0.00027  -0.00001   1.90792
   A18        1.90793  -0.00020  -0.00028   0.00027  -0.00001   1.90792
   A19        1.93411  -0.00020  -0.00037  -0.00092  -0.00130   1.93281
   A20        1.92720   0.00077   0.00178   0.00202   0.00380   1.93101
   A21        1.93411  -0.00020  -0.00037  -0.00092  -0.00130   1.93281
   A22        1.88925  -0.00022  -0.00043   0.00017  -0.00026   1.88900
   A23        1.88847   0.00005  -0.00022  -0.00052  -0.00074   1.88773
   A24        1.88925  -0.00022  -0.00043   0.00017  -0.00026   1.88900
    D1        1.02098  -0.00004   0.00007  -0.00074  -0.00067   1.02031
    D2       -1.02098   0.00004  -0.00007   0.00074   0.00067  -1.02032
    D3        3.14159   0.00000   0.00000   0.00000   0.00000   3.14159
    D4       -1.07223  -0.00014  -0.00031  -0.00167  -0.00199  -1.07422
    D5       -3.11420  -0.00006  -0.00045  -0.00020  -0.00065  -3.11485
    D6        1.04838  -0.00010  -0.00038  -0.00094  -0.00132   1.04706
    D7        3.11419   0.00006   0.00045   0.00019   0.00065   3.11484
    D8        1.07223   0.00014   0.00031   0.00167   0.00199   1.07422
    D9       -1.04838   0.00010   0.00038   0.00093   0.00132  -1.04706
   D10       -0.00003   0.00000   0.00000   0.00000   0.00000  -0.00003
   D11        1.02085  -0.00011  -0.00015  -0.00110  -0.00125   1.01959
   D12       -1.02088   0.00011   0.00015   0.00110   0.00125  -1.01963
   D13        3.14157   0.00000   0.00000   0.00000   0.00000   3.14157
   D14        3.14158   0.00000   0.00000   0.00000   0.00000   3.14158
   D15        1.09985   0.00021   0.00030   0.00220   0.00250   1.10235
   D16       -1.02088   0.00011   0.00015   0.00110   0.00125  -1.01963
   D17       -1.09988  -0.00021  -0.00030  -0.00220  -0.00250  -1.10238
   D18        3.14158   0.00000   0.00000   0.00000   0.00000   3.14158
   D19        1.02085  -0.00011  -0.00015  -0.00110  -0.00125   1.01959
   D20        1.04838  -0.00010  -0.00038  -0.00093  -0.00132   1.04706
   D21        3.14159   0.00000   0.00000   0.00000   0.00000   3.14159
   D22       -1.04838   0.00010   0.00038   0.00094   0.00132  -1.04706
   D23       -3.11420  -0.00006  -0.00045  -0.00019  -0.00065  -3.11485
   D24       -1.02098   0.00004  -0.00007   0.00074   0.00067  -1.02032
   D25        1.07223   0.00014   0.00031   0.00167   0.00199   1.07422
   D26       -1.07223  -0.00014  -0.00031  -0.00167  -0.00199  -1.07422
   D27        1.02098  -0.00004   0.00007  -0.00074  -0.00067   1.02031
   D28        3.11419   0.00006   0.00045   0.00020   0.00065   3.11484
         Item               Value     Threshold  Converged?
 Maximum Force            0.001467     0.000450     NO 
 RMS     Force            0.000481     0.000300     NO 
 Maximum Displacement     0.007347     0.001800     NO 
 RMS     Displacement     0.002702     0.001200     NO 
 Predicted change in Energy=-2.262855D-05
 GradGradGradGradGradGradGradGradGradGradGradGradGradGradGradGradGradGrad

                          Input orientation:                          
 ---------------------------------------------------------------------
 Center     Atomic      Atomic             Coordinates (Angstroms)
 Number     Number       Type             X           Y           Z
 ---------------------------------------------------------------------
      1          6           0       -3.026682    1.068640   -0.018314
      2          1           0       -2.667082    0.044194   -0.022534
      3          1           0       -2.676103    1.555405   -0.923197
      4          1           0       -4.111839    1.047813   -0.043995
      5          6           0       -2.524554    1.815466    1.232829
      6          1           0       -1.436659    1.798954    1.249441
      7          1           0       -2.865855    1.293678    2.124633
      8          6           0       -3.012408    3.280517    1.281982
      9          1           0       -4.100303    3.297029    1.265353
     10          1           0       -2.671094    3.802311    0.390186
     11          6           0       -2.510302    4.027336    2.533137
     12          1           0       -1.425145    4.048160    2.558840
     13          1           0       -2.869899    5.051783    2.537356
     14          1           0       -2.860899    3.540567    3.438011
 ---------------------------------------------------------------------
                    Distance matrix (angstroms):
                    1          2          3          4          5
     1  C    0.000000
     2  H    1.085735   0.000000
     3  H    1.085660   1.759271   0.000000
     4  H    1.085660   1.759271   1.758403   0.000000
     5  C    1.541181   2.175697   2.176935   2.176934   0.000000
     6  H    2.160725   2.492197   2.513144   3.064927   1.088147
     7  H    2.160724   2.492197   3.064926   2.513140   1.088147
     8  C    2.565808   3.506394   2.819916   2.819917   1.544925
     9  H    2.786786   3.780702   3.138686   2.602594   2.163116
    10  H    2.786803   3.780714   2.602611   3.138713   2.163116
    11  C    3.940867   4.735130   4.252550   4.252539   2.565808
    12  H    4.252550   4.923174   4.461312   4.795326   2.819916
    13  H    4.735130   5.627621   4.923174   4.923166   3.506394
    14  H    4.252539   4.923166   4.795326   4.461282   2.819917
                    6          7          8          9         10
     6  H    0.000000
     7  H    1.750390   0.000000
     8  C    2.163116   2.163116   0.000000
     9  H    3.056056   2.505123   1.088147   0.000000
    10  H    2.505111   3.056056   1.088147   1.750390   0.000000
    11  C    2.786803   2.786786   1.541181   2.160724   2.160725
    12  H    2.602611   3.138686   2.176935   3.064926   2.513143
    13  H    3.780714   3.780702   2.175697   2.492197   2.492197
    14  H    3.138712   2.602594   2.176934   2.513141   3.064927
                   11         12         13         14
    11  C    0.000000
    12  H    1.085660   0.000000
    13  H    1.085735   1.759271   0.000000
    14  H    1.085660   1.758403   1.759271   0.000000
 Stoichiometry    C4H10
 Framework group  C1[X(C4H10)]
 Deg. of freedom    36
 Full point group                 C1      NOp   1
 Largest Abelian subgroup         C1      NOp   1
 Largest concise Abelian subgroup C1      NOp   1
                         Standard orientation:                         
 ---------------------------------------------------------------------
 Center     Atomic      Atomic             Coordinates (Angstroms)
 Number     Number       Type             X           Y           Z
 ---------------------------------------------------------------------
      1          6           0       -1.966474    0.124848    0.000006
      2          1           0       -2.740981   -0.636046    0.000004
      3          1           0       -2.101776    0.747236   -0.879189
      4          1           0       -2.101766    0.747221    0.879214
      5          6           0       -0.568208   -0.523296   -0.000007
      6          1           0       -0.467567   -1.162014   -0.875207
      7          1           0       -0.467557   -1.162024    0.875183
      8          6           0        0.568208    0.523296   -0.000007
      9          1           0        0.467557    1.162024    0.875183
     10          1           0        0.467567    1.162014   -0.875207
     11          6           0        1.966474   -0.124848    0.000006
     12          1           0        2.101777   -0.747235   -0.879190
     13          1           0        2.740981    0.636046    0.000005
     14          1           0        2.101766   -0.747222    0.879214
 ---------------------------------------------------------------------
 Rotational constants (GHZ):     23.3358553      3.5945165      3.3726574
 Standard basis: STO-3G (5D, 7F)
 There are    30 symmetry adapted cartesian basis functions of A   symmetry.
 There are    30 symmetry adapted basis functions of A   symmetry.
    30 basis functions,    90 primitive gaussians,    30 cartesian basis functions
    17 alpha electrons       17 beta electrons
       nuclear repulsion energy       130.2460943711 Hartrees.
 NAtoms=   14 NActive=   14 NUniq=   14 SFac= 1.00D+00 NAtFMM=   60 NAOKFM=F Big=F
 Integral buffers will be    131072 words long.
 Raffenetti 1 integral format.
 Two-electron integral symmetry is turned on.
 One-electron integrals computed using PRISM.
 NBasis=    30 RedAO= T EigKep=  2.01D-01  NBF=    30
 NBsUse=    30 1.00D-06 EigRej= -1.00D+00 NBFU=    30
 Initial guess from the checkpoint file:  "butane.chk"
 B after Tr=     0.000000    0.000000    0.000000
         Rot=    1.000000    0.000000    0.000000    0.000040 Ang=   0.00 deg.
 Keep R1 ints in memory in canonical form, NReq=952435.
 Requested convergence on RMS density matrix=1.00D-08 within 128 cycles.
 Requested convergence on MAX density matrix=1.00D-06.
 Requested convergence on             energy=1.00D-06.
 No special actions if energy rises.
 SCF Done:  E(RHF) =  -155.466644755     A.U. after    6 cycles
            NFock=  6  Conv=0.47D-08     -V/T= 2.0087
 Calling FoFJK, ICntrl=      2127 FMM=F ISym2X=0 I1Cent= 0 IOpClX= 0 NMat=1 NMatS=1 NMatT=0.
 ***** Axes restored to original set *****
 -------------------------------------------------------------------
 Center     Atomic                   Forces (Hartrees/Bohr)
 Number     Number              X              Y              Z
 -------------------------------------------------------------------
      1        6           0.000051021    0.000245844    0.000224924
      2        1           0.000121826   -0.000214761    0.000074956
      3        1           0.000128525    0.000148657   -0.000253326
      4        1          -0.000319758   -0.000009828    0.000021188
      5        6          -0.000046222    0.000004764   -0.000072398
      6        1           0.000351694    0.000018916   -0.000082623
      7        1          -0.000193609   -0.000173874    0.000251308
      8        6           0.000045944   -0.000004863    0.000072566
      9        1          -0.000351696   -0.000018915    0.000082613
     10        1           0.000193617    0.000173876   -0.000251303
     11        6          -0.000050749   -0.000245746   -0.000225091
     12        1           0.000319758    0.000009827   -0.000021182
     13        1          -0.000121823    0.000214761   -0.000074957
     14        1          -0.000128530   -0.000148657    0.000253323
 -------------------------------------------------------------------
 Cartesian Forces:  Max     0.000351696 RMS     0.000176601

 GradGradGradGradGradGradGradGradGradGradGradGradGradGradGradGradGradGrad
 Berny optimization.
 Using GEDIIS/GDIIS optimizer.
 FormGI is forming the generalized inverse of G from B-inverse, IUseBI=4.
 Internal  Forces:  Max     0.000350065 RMS     0.000135036
 Search for a local minimum.
 Step number   4 out of a maximum of   75 on scan point     1 out of    16
 All quantities printed in internal units (Hartrees-Bohrs-Radians)
 Mixed Optimization -- En-DIIS/RFO-DIIS
 Swapping is turned off.
 Update second derivatives using D2CorX and points    1    2    3    4
 DE= -1.68D-05 DEPred=-2.26D-05 R= 7.44D-01
 TightC=F SS=  1.41D+00  RLast= 1.35D-02 DXNew= 8.4853D-01 4.0415D-02
 Trust test= 7.44D-01 RLast= 1.35D-02 DXMaxT set to 5.05D-01
 ITU=  1  1  1  0
     Eigenvalues ---    0.00237   0.00237   0.01440   0.03464   0.04760
     Eigenvalues ---    0.04983   0.05487   0.05495   0.05495   0.05610
     Eigenvalues ---    0.08226   0.08270   0.10604   0.12140   0.15763
     Eigenvalues ---    0.16000   0.16000   0.16000   0.16000   0.16952
     Eigenvalues ---    0.21924   0.23365   0.28519   0.28540   0.36638
     Eigenvalues ---    0.37224   0.37230   0.37230   0.37230   0.37230
     Eigenvalues ---    0.37230   0.37230   0.37230   0.40420   0.46274
     Eigenvalues --- 1000.000001000.000001000.000001000.000001000.00000
     Eigenvalues --- 1000.000001000.000001000.000001000.000001000.00000
     Eigenvalues --- 1000.000001000.000001000.000001000.000001000.00000
     Eigenvalues --- 1000.000001000.000001000.000001000.000001000.00000
     Eigenvalues --- 1000.000001000.000001000.000001000.000001000.00000
     Eigenvalues --- 1000.000001000.000001000.000001000.000001000.00000
 En-DIIS/RFO-DIIS IScMMF=        0 using points:     4    3
 RFO step:  Lambda=-1.82841866D-06.
 DidBck=T Rises=F RFO-DIIS coefs:    0.79956    0.20044
 Iteration  1 RMS(Cart)=  0.00047228 RMS(Int)=  0.00000022
 Iteration  2 RMS(Cart)=  0.00000017 RMS(Int)=  0.00000016
 Iteration  1 RMS(Cart)=  0.00000000 RMS(Int)=  0.00000000
 Variable       Old X    -DE/DX   Delta X   Delta X   Delta X     New X
                                 (Linear)    (Quad)   (Total)
    R1        2.05174   0.00024   0.00033   0.00020   0.00053   2.05227
    R2        2.05160   0.00032   0.00045   0.00021   0.00066   2.05226
    R3        2.05160   0.00032   0.00045   0.00021   0.00066   2.05226
    R4        2.91241  -0.00013  -0.00068   0.00052  -0.00016   2.91225
    R5        2.05630   0.00035   0.00049   0.00024   0.00073   2.05703
    R6        2.05630   0.00035   0.00049   0.00024   0.00073   2.05703
    R7        2.91948   0.00001  -0.00030   0.00047   0.00016   2.91965
    R8        2.05630   0.00035   0.00049   0.00024   0.00073   2.05703
    R9        2.05630   0.00035   0.00049   0.00024   0.00073   2.05703
   R10        2.91241  -0.00013  -0.00068   0.00052  -0.00016   2.91225
   R11        2.05160   0.00032   0.00045   0.00021   0.00066   2.05226
   R12        2.05174   0.00024   0.00033   0.00020   0.00053   2.05227
   R13        2.05160   0.00032   0.00045   0.00021   0.00066   2.05226
    A1        1.88900   0.00005   0.00005   0.00007   0.00013   1.88912
    A2        1.88900   0.00005   0.00005   0.00007   0.00013   1.88912
    A3        1.93101  -0.00012  -0.00076   0.00025  -0.00052   1.93049
    A4        1.88773   0.00003   0.00015   0.00017   0.00032   1.88805
    A5        1.93281   0.00000   0.00026  -0.00028  -0.00002   1.93279
    A6        1.93281   0.00000   0.00026  -0.00028  -0.00002   1.93279
    A7        1.90792   0.00002   0.00000  -0.00016  -0.00015   1.90776
    A8        1.90792   0.00002   0.00000  -0.00016  -0.00015   1.90776
    A9        1.96327  -0.00015  -0.00060  -0.00003  -0.00063   1.96264
   A10        1.86899   0.00002   0.00022   0.00067   0.00089   1.86988
   A11        1.90669   0.00005   0.00021  -0.00015   0.00006   1.90675
   A12        1.90669   0.00005   0.00021  -0.00015   0.00006   1.90675
   A13        1.90669   0.00005   0.00021  -0.00015   0.00006   1.90675
   A14        1.90669   0.00005   0.00021  -0.00015   0.00006   1.90675
   A15        1.96327  -0.00015  -0.00060  -0.00003  -0.00063   1.96264
   A16        1.86899   0.00002   0.00022   0.00067   0.00089   1.86988
   A17        1.90792   0.00002   0.00000  -0.00016  -0.00015   1.90776
   A18        1.90792   0.00002   0.00000  -0.00016  -0.00015   1.90776
   A19        1.93281   0.00000   0.00026  -0.00028  -0.00002   1.93279
   A20        1.93101  -0.00012  -0.00076   0.00025  -0.00052   1.93049
   A21        1.93281   0.00000   0.00026  -0.00028  -0.00002   1.93279
   A22        1.88900   0.00005   0.00005   0.00007   0.00013   1.88912
   A23        1.88773   0.00003   0.00015   0.00017   0.00032   1.88805
   A24        1.88900   0.00005   0.00005   0.00007   0.00013   1.88912
    D1        1.02031   0.00003   0.00013   0.00031   0.00045   1.02076
    D2       -1.02032  -0.00003  -0.00013  -0.00031  -0.00045  -1.02076
    D3        3.14159   0.00000   0.00000   0.00000   0.00000   3.14159
    D4       -1.07422   0.00004   0.00040   0.00024   0.00064  -1.07358
    D5       -3.11485  -0.00001   0.00013  -0.00039  -0.00026  -3.11510
    D6        1.04706   0.00002   0.00026  -0.00007   0.00019   1.04725
    D7        3.11484   0.00001  -0.00013   0.00039   0.00026   3.11510
    D8        1.07422  -0.00004  -0.00040  -0.00024  -0.00064   1.07358
    D9       -1.04706  -0.00002  -0.00026   0.00007  -0.00019  -1.04725
   D10       -0.00003   0.00000   0.00000   0.00000   0.00000  -0.00003
   D11        1.01959   0.00004   0.00025   0.00032   0.00057   1.02016
   D12       -1.01963  -0.00004  -0.00025  -0.00032  -0.00057  -1.02020
   D13        3.14157   0.00000   0.00000   0.00000   0.00000   3.14157
   D14        3.14158   0.00000   0.00000   0.00000   0.00000   3.14158
   D15        1.10235  -0.00008  -0.00050  -0.00064  -0.00114   1.10121
   D16       -1.01963  -0.00004  -0.00025  -0.00032  -0.00057  -1.02020
   D17       -1.10238   0.00008   0.00050   0.00064   0.00114  -1.10125
   D18        3.14158   0.00000   0.00000   0.00000   0.00000   3.14158
   D19        1.01959   0.00004   0.00025   0.00032   0.00057   1.02016
   D20        1.04706   0.00002   0.00026  -0.00007   0.00019   1.04725
   D21        3.14159   0.00000   0.00000   0.00000   0.00000   3.14159
   D22       -1.04706  -0.00002  -0.00026   0.00007  -0.00019  -1.04725
   D23       -3.11485  -0.00001   0.00013  -0.00039  -0.00026  -3.11510
   D24       -1.02032  -0.00003  -0.00013  -0.00031  -0.00045  -1.02076
   D25        1.07422  -0.00004  -0.00040  -0.00024  -0.00064   1.07358
   D26       -1.07422   0.00004   0.00040   0.00024   0.00064  -1.07358
   D27        1.02031   0.00003   0.00013   0.00031   0.00045   1.02076
   D28        3.11484   0.00001  -0.00013   0.00039   0.00026   3.11510
         Item               Value     Threshold  Converged?
 Maximum Force            0.000350     0.000450     YES
 RMS     Force            0.000136     0.000300     YES
 Maximum Displacement     0.001060     0.001800     YES
 RMS     Displacement     0.000472     0.001200     YES
 Predicted change in Energy=-1.518477D-06
 Optimization completed.
    -- Stationary point found.
                           ----------------------------
                           !   Optimized Parameters   !
                           ! (Angstroms and Degrees)  !
 --------------------------                            --------------------------
 ! Name  Definition              Value          Derivative Info.                !
 --------------------------------------------------------------------------------
 ! R1    R(1,2)                  1.0857         -DE/DX =    0.0002              !
 ! R2    R(1,3)                  1.0857         -DE/DX =    0.0003              !
 ! R3    R(1,4)                  1.0857         -DE/DX =    0.0003              !
 ! R4    R(1,5)                  1.5412         -DE/DX =   -0.0001              !
 ! R5    R(5,6)                  1.0881         -DE/DX =    0.0004              !
 ! R6    R(5,7)                  1.0881         -DE/DX =    0.0004              !
 ! R7    R(5,8)                  1.5449         -DE/DX =    0.0                 !
 ! R8    R(8,9)                  1.0881         -DE/DX =    0.0004              !
 ! R9    R(8,10)                 1.0881         -DE/DX =    0.0004              !
 ! R10   R(8,11)                 1.5412         -DE/DX =   -0.0001              !
 ! R11   R(11,12)                1.0857         -DE/DX =    0.0003              !
[...]
           D17         48.89131  73.80174 100.62330 130.26031 157.68349
           D18        -67.51402 -41.79491 -14.78119  14.85274  42.08499
           D19        169.92369-163.32714-136.35342-108.16698 -80.78277
           D20         63.16999  65.01205  61.01998  60.11467  55.77841
           D21       -176.92915-175.45808-179.56295 179.56308 175.43927
           D22        -57.24113 -55.79787 -60.12109 -61.02426 -65.03114
           D23       -175.92482-172.57515-175.94649-177.76190 177.70401
           D24        -56.02396 -53.04528 -56.52942 -58.31349 -62.63513
           D25         63.66406  66.61493  62.91244  61.09917  56.89446
           D26        -59.32317 -56.90788 -61.10588 -62.91502 -66.63367
           D27         60.57770  62.62198  58.31118  56.53339  53.02719
           D28       -179.73429-177.71780 177.75304 175.94605 172.55678
                          11        12        13        14        15
     Eigenvalues --  -155.46530-155.46272-155.46141-155.46378-155.46591
           R1           1.08596   1.08611   1.08621   1.08616   1.08607
           R2           1.08597   1.08588   1.08609   1.08619   1.08615
           R3           1.08522   1.08619   1.08598   1.08577   1.08585
           R4           1.54151   1.54095   1.54208   1.54250   1.54158
           R5           1.08864   1.08832   1.08779   1.08796   1.08830
           R6           1.08856   1.08776   1.08801   1.08844   1.08857
           R7           1.54753   1.55469   1.55665   1.55026   1.54624
           R8           1.08859   1.08783   1.08795   1.08837   1.08857
           R9           1.08863   1.08810   1.08788   1.08815   1.08836
           R10          1.54157   1.54202   1.54150   1.54116   1.54110
           R11          1.08597   1.08578   1.08612   1.08626   1.08615
           R12          1.08603   1.08620   1.08616   1.08603   1.08603
           R13          1.08512   1.08607   1.08602   1.08589   1.08589
           A1         108.19124 108.24950 108.23582 108.22274 108.22275
           A2         108.03307 108.19059 108.26911 108.28419 108.26316
           A3         110.26130 110.53943 110.60909 110.66490 110.63578
           A4         108.25445 108.16394 108.19593 108.20024 108.18033
           A5         110.68975 110.56540 110.81884 110.91164 110.87333
           A6         111.30577 111.03411 110.61851 110.46369 110.57044
           A7         108.63416 108.21000 109.16970 109.87819 109.76993
           A8         109.38772 109.53838 108.59316 108.44526 108.79474
           A9         113.80465 113.28950 112.79350 112.17823 112.29734
           A10        107.04215 106.81090 106.75060 106.97809 107.10532
           A11        108.46923 109.18937 109.73075 109.83708 109.53670
           A12        109.28009 109.58894 109.61556 109.37518 109.19484
           A13        109.28312 109.91875 109.46613 108.99754 109.05051
           A14        108.49755 109.34642 109.61617 109.52266 109.41010
           A15        113.70996 112.03616 113.40339 113.61428 112.83187
           A16        107.06121 107.05941 106.64561 106.75471 107.01970
           A17        109.41117 109.79202 108.45474 108.10874 108.68292
           A18        108.66158 108.55004 109.02693 109.60520 109.67349
           A19        110.68703 110.46059 110.87397 111.05652 110.92413
           A20        110.27821 110.76827 110.51392 110.45404 110.56013
           A21        111.29582 110.89886 110.67031 110.55808 110.60547
           A22        108.19752 108.24189 108.23901 108.22250 108.22015
           A23        108.24832 108.18869 108.18041 108.16729 108.17011
           A24        108.02868 108.18519 108.26915 108.28763 108.26534
           D1          56.03955  59.89852  57.47746  56.18865  56.99697
           D2         -60.48284 -56.19322 -58.55479 -60.42143 -59.90584
           D3         176.98111-178.88155 179.73902 178.67298 179.10162
           D4         -63.63910 -59.95253 -62.56683 -63.93687 -63.08419
           D5         179.83851-176.04427-178.59907 179.45305-179.98700
           D6          57.30246  61.26741  59.69474  58.54746  59.02047
           D7         175.91773 179.98114 177.43272 176.09831 176.93086
           D8          59.39533  63.88941  61.40047  59.48824  60.02805
           D9         -63.14071 -58.79892 -60.30572 -61.41736 -60.96448
           D10       -120.00172 -96.00193 -72.00183 -48.00176 -24.00173
           D11        -53.51669 -24.28940   5.45354  28.13737  44.43593
           D12       -169.92793-141.54313-111.19449 -88.32098 -72.30733
           D13         69.04518  98.06855 126.70685 148.75343 165.30542
           D14         67.51703  96.37759 127.39931 150.64501 166.67300
           D15        -48.89421 -20.87614  10.75128  34.18666  49.92974
           D16       -169.92110-141.26445-111.34738 -88.73893 -72.45751
           D17       -176.11186-146.94971-115.67286 -92.23034 -76.32628
           D18         67.47689  95.79656 127.67912 151.31131 166.93046
           D19        -53.55000 -24.59176   5.58046  28.38573  44.54321
           D20         57.28455  61.37285  59.79187  59.12511  59.20408
           D21        176.98019-178.70540 179.81368 179.20603 179.26543
           D22        -63.14241 -58.56715 -60.25930 -60.95529 -60.82434
           D23        179.77592-176.19707-178.38860-179.75971-179.71716
           D24        -60.52844 -56.27531 -58.36679 -59.67878 -59.65581
           D25         59.34896  63.86293  61.56023  60.15989  60.25442
           D26        -63.65050 -59.47743 -62.63408 -63.75514 -63.03537
           D27         56.04514  60.44432  57.38773  56.32578  57.02598
           D28        175.92253-179.41743 177.31476 176.16446 176.93621
                          16
     Eigenvalues --  -155.46665
           R1           1.08598
           R2           1.08604
           R3           1.08597
           R4           1.54105
           R5           1.08854
           R6           1.08859
           R7           1.54500
           R8           1.08850
           R9           1.08856
           R10          1.54108
           R11          1.08596
           R12          1.08610
           R13          1.08595
           A1         108.23497
           A2         108.22808
           A3         110.61470
           A4         108.18321
           A5         110.74353
           A6         110.74052
           A7         109.30779
           A8         109.30156
           A9         112.44375
           A10        107.13397
           A11        109.24941
           A12        109.26145
           A13        109.24723
           A14        109.24533
           A15        112.45865
           A16        107.11734
           A17        109.30896
           A18        109.31883
           A19        110.75303
           A20        110.59630
           A21        110.74798
           A22        108.23828
           A23        108.17445
           A24        108.23504
           D1          58.50876
           D2         -58.45688
           D3        -179.97952
           D4         -61.48892
           D5        -178.45457
           D6          60.02279
           D7         178.49585
           D8          61.53020
           D9         -59.99244
           D10         -0.00168
           D11         58.44413
           D12        -58.43496
           D13        179.99899
           D14        179.98913
           D15         63.11004
           D16        -58.45602
           D17        -63.10138
           D18        180.01953
           D19         58.45348
           D20         59.99198
           D21       -180.01202
           D22        -60.02339
           D23       -178.48834
           D24        -58.49235
           D25         61.49628
           D26        -61.53218
           D27         58.46381
           D28        178.45244
                          Input orientation:                          
 ---------------------------------------------------------------------
 Center     Atomic      Atomic             Coordinates (Angstroms)
 Number     Number       Type             X           Y           Z
 ---------------------------------------------------------------------
      1          6           0       -2.135703    0.716896    0.900546
      2          1           0       -2.314218    0.036698    0.073006
      3          1           0       -2.470477    0.235299    1.814582
      4          1           0       -1.065492    0.884143    0.977989
      5          6           0       -2.881425    2.047330    0.679883
      6          1           0       -3.947188    1.850127    0.579039
      7          1           0       -2.548436    2.495789   -0.254477
      8          6           0       -2.655722    3.048594    1.834682
      9          1           0       -1.589966    3.245617    1.935618
     10          1           0       -2.988461    2.599762    2.768915
     11          6           0       -3.401293    4.379197    1.614352
     12          1           0       -4.471566    4.212345    1.536926
     13          1           0       -3.222274    5.059091    2.442187
     14          1           0       -3.066603    4.860967    0.700479
 ---------------------------------------------------------------------
                    Distance matrix (angstroms):
                    1          2          3          4          5
     1  C    0.000000
     2  H    1.085983   0.000000
     3  H    1.086035   1.759814   0.000000
     4  H    1.085966   1.759681   1.759224   0.000000
     5  C    1.541054   2.175468   2.177125   2.177036   0.000000
     6  H    2.160800   2.492224   2.512949   3.065364   1.088535
     7  H    2.160760   2.491833   3.065436   2.513066   1.088589
     8  C    2.565121   3.505944   2.819459   2.819149   1.545002
     9  H    2.786329   3.780347   3.138784   2.601669   2.163476
    10  H    2.786249   3.780453   2.601874   3.138244   2.163491
    11  C    3.940011   4.734425   4.251871   4.251627   2.565366
    12  H    4.251988   4.922727   4.460756   4.794860   2.819639
    13  H    4.734126   5.626901   4.922201   4.921968   3.506080
    14  H    4.252049   4.922741   4.795143   4.460559   2.819800
                    6          7          8          9         10
     6  H    0.000000
     7  H    1.751609   0.000000
     8  C    2.163527   2.163721   0.000000
     9  H    3.056827   2.505478   1.088504   0.000000
    10  H    2.505328   3.057014   1.088557   1.751371   0.000000
    11  C    2.786767   2.786954   1.541080   2.160815   2.160981
    12  H    2.602421   3.139127   2.177215   3.065475   2.513528
    13  H    3.780777   3.781081   2.175349   2.491933   2.491931
    14  H    3.139321   2.602788   2.177139   2.513042   3.065548
                   11         12         13         14
    11  C    0.000000
    12  H    1.085964   0.000000
    13  H    1.086101   1.759889   0.000000
    14  H    1.085948   1.759055   1.759839   0.000000
 Stoichiometry    C4H10
 Framework group  C1[X(C4H10)]
 Deg. of freedom    36
 Full point group                 C1      NOp   1
 Largest Abelian subgroup         C1      NOp   1
 Largest concise Abelian subgroup C1      NOp   1
                         Standard orientation:                         
 ---------------------------------------------------------------------
 Center     Atomic      Atomic             Coordinates (Angstroms)
 Number     Number       Type             X           Y           Z
 ---------------------------------------------------------------------
      1          6           0       -1.965983   -0.125022   -0.000007
      2          1           0       -2.740657    0.636055   -0.000338
      3          1           0       -2.101310   -0.747297    0.879727
      4          1           0       -2.101041   -0.747580   -0.879497
      5          6           0       -0.568095    0.523634    0.000034
      6          1           0       -0.467631    1.162150    0.875883
      7          1           0       -0.467796    1.162392   -0.875726
      8          6           0        0.568013   -0.523406   -0.000011
      9          1           0        0.467406   -1.162005   -0.875745
     10          1           0        0.467266   -1.162207    0.875626
     11          6           0        1.966094    0.124898    0.000005
     12          1           0        2.101540    0.747493    0.879407
     13          1           0        2.740409   -0.636713    0.000186
     14          1           0        2.101643    0.747088   -0.879648
 ---------------------------------------------------------------------
 Rotational constants (GHZ):     23.3185372      3.5958081      3.3737246

 **********************************************************************

            Population analysis using the SCF density.

 **********************************************************************

 Orbital symmetries:
       Occupied  (A) (A) (A) (A) (A) (A) (A) (A) (A) (A) (A) (A)
                 (A) (A) (A) (A) (A)
       Virtual   (A) (A) (A) (A) (A) (A) (A) (A) (A) (A) (A) (A)
                 (A)
 The electronic state is 1-A.
 Alpha  occ. eigenvalues --  -11.03850 -11.03819 -11.03167 -11.03165  -1.02748
 Alpha  occ. eigenvalues --   -0.94261  -0.82733  -0.75843  -0.61027  -0.55547
 Alpha  occ. eigenvalues --   -0.54185  -0.53947  -0.48529  -0.46959  -0.43286
 Alpha  occ. eigenvalues --   -0.43090  -0.41489
 Alpha virt. eigenvalues --    0.60126   0.61736   0.65210   0.68377   0.68723
 Alpha virt. eigenvalues --    0.73684   0.75069   0.76558   0.76768   0.76832
 Alpha virt. eigenvalues --    0.79784   0.80018   0.83151
          Condensed to atoms (all electrons):
               1          2          3          4          5          6
     1  C    4.731245   0.384641   0.384324   0.384333   0.362347  -0.022226
     2  H    0.384641   0.624353  -0.021936  -0.021943  -0.019628  -0.002106
     3  H    0.384324  -0.021936   0.625843  -0.022186  -0.020532  -0.002179
     4  H    0.384333  -0.021943  -0.022186   0.625833  -0.020535   0.001851
     5  C    0.362347  -0.019628  -0.020532  -0.020535   4.731881   0.383470
     6  H   -0.022226  -0.002106  -0.002179   0.001851   0.383470   0.638440
     7  H   -0.022230  -0.002111   0.001851  -0.002176   0.383462  -0.023963
     8  C   -0.020994   0.001172  -0.001945  -0.001949   0.362380  -0.022393
     9  H   -0.001955   0.000007  -0.000001   0.000342  -0.022393   0.001870
    10  H   -0.001955   0.000007   0.000342  -0.000001  -0.022393  -0.002226
    11  C    0.000632  -0.000014   0.000006   0.000006  -0.020982  -0.001952
    12  H    0.000006   0.000000   0.000001   0.000000  -0.001945   0.000342
    13  H   -0.000014   0.000000   0.000000   0.000000   0.001171   0.000007
    14  H    0.000006   0.000000   0.000000   0.000001  -0.001943  -0.000001
               7          8          9         10         11         12
     1  C   -0.022230  -0.020994  -0.001955  -0.001955   0.000632   0.000006
     2  H   -0.002111   0.001172   0.000007   0.000007  -0.000014   0.000000
     3  H    0.001851  -0.001945  -0.000001   0.000342   0.000006   0.000001
     4  H   -0.002176  -0.001949   0.000342  -0.000001   0.000006   0.000000
     5  C    0.383462   0.362380  -0.022393  -0.022393  -0.020982  -0.001945
     6  H   -0.023963  -0.022393   0.001870  -0.002226  -0.001952   0.000342
     7  H    0.638449  -0.022381  -0.002225   0.001870  -0.001950  -0.000001
     8  C   -0.022381   4.731889   0.383473   0.383466   0.362349  -0.020526
     9  H   -0.002225   0.383473   0.638449  -0.023975  -0.022226   0.001851
    10  H    0.001870   0.383466  -0.023975   0.638451  -0.022217  -0.002174
    11  C   -0.001950   0.362349  -0.022226  -0.022217   4.731211   0.384334
    12  H   -0.000001  -0.020526   0.001851  -0.002174   0.384334   0.625808
    13  H    0.000007  -0.019637  -0.002108  -0.002110   0.384618  -0.021931
    14  H    0.000342  -0.020528  -0.002178   0.001851   0.384337  -0.022198
              13         14
     1  C   -0.000014   0.000006
     2  H    0.000000   0.000000
     3  H    0.000000   0.000000
     4  H    0.000000   0.000001
     5  C    0.001171  -0.001943
     6  H    0.000007  -0.000001
     7  H    0.000007   0.000342
     8  C   -0.019637  -0.020528
     9  H   -0.002108  -0.002178
    10  H   -0.002110   0.001851
    11  C    0.384618   0.384337
    12  H   -0.021931  -0.022198
    13  H    0.624385  -0.021933
    14  H   -0.021933   0.625809
 Mulliken charges:
               1
     1  C   -0.178160
     2  H    0.057558
     3  H    0.056411
     4  H    0.056421
     5  C   -0.094360
     6  H    0.051063
     7  H    0.051055
     8  C   -0.094377
     9  H    0.051068
    10  H    0.051063
    11  C   -0.178153
    12  H    0.056431
    13  H    0.057544
    14  H    0.056435
 Sum of Mulliken charges =   0.00000
 Mulliken charges with hydrogens summed into heavy atoms:
               1
     1  C   -0.007770
     5  C    0.007758
     8  C    0.007754
    11  C   -0.007743
 Electronic spatial extent (au):  <R**2>=            423.8017
 Charge=              0.0000 electrons
 Dipole moment (field-independent basis, Debye):
    X=              0.0001    Y=             -0.0001    Z=             -0.0001  Tot=              0.0001
 Quadrupole moment (field-independent basis, Debye-Ang):
   XX=            -27.3395   YY=            -26.7872   ZZ=            -26.4547
   XY=             -0.1435   XZ=              0.0001   YZ=             -0.0002
 Traceless Quadrupole moment (field-independent basis, Debye-Ang):
   XX=             -0.4790   YY=              0.0733   ZZ=              0.4057
   XY=             -0.1435   XZ=              0.0001   YZ=             -0.0002
 Octapole moment (field-independent basis, Debye-Ang**2):
  XXX=              0.0000  YYY=             -0.0007  ZZZ=              0.0000  XYY=              0.0012
  XXY=              0.0010  XXZ=             -0.0006  XZZ=             -0.0005  YZZ=              0.0003
  YYZ=              0.0000  XYZ=              0.0006
 Hexadecapole moment (field-independent basis, Debye-Ang**3):
 XXXX=           -423.9121 YYYY=            -78.4828 ZZZZ=            -48.7637 XXXY=             -5.2290
 XXXZ=              0.0014 YYYX=             -0.4430 YYYZ=             -0.0005 ZZZX=             -0.0016
 ZZZY=             -0.0002 XXYY=            -81.2968 XXZZ=            -78.0161 YYZZ=            -19.1041
 XXYZ=             -0.0015 YYXZ=              0.0012 ZZXY=              1.7694
 N-N= 1.302415827064D+02 E-N=-6.211818567778D+02  KE= 1.541182745181D+02
 1\1\GINC-MAYANK-HP\Scan\RHF\STO-3G\C4H10\MAYANK\19-Feb-2025\0\\# opt=m
 odredundant hf/sto-3g geom=connectivity\\Title Card Required\\0,1\C,-2
 .135703023,0.7168961666,0.9005455137\H,-2.3142183856,0.0366977914,0.07
 30064066\H,-2.4704771581,0.2352985317,1.8145817035\H,-1.0654915812,0.8
 841431904,0.977989356\C,-2.8814252416,2.0473295368,0.6798832495\H,-3.9
 471878268,1.8501266176,0.5790387021\H,-2.548435967,2.4957887432,-0.254
 4771947\C,-2.6557217636,3.0485937974,1.8346818016\H,-1.5899664972,3.24
 56169078,1.9356176951\H,-2.9884606084,2.5997621685,2.768915249\C,-3.40
 12931198,4.3791973801,1.6143517052\H,-4.4715660492,4.2123449009,1.5369
 261692\H,-3.2222736868,5.0590910582,2.4421870243\H,-3.0666029916,4.860
 9669291,0.700478789\\Version=AM64L-G09RevD.01\State=1-A\HF=-155.466644
 8,-155.4659053,-155.4637773,-155.4614053,-155.4627183,-155.4652954,-15
 5.4631498,-155.4585958,-155.4585953,-155.4631491,-155.4652955,-155.462
 7188,-155.4614052,-155.4637769,-155.4659055,-155.4666462\RMSD=4.743e-0
 9,1.320e-09,2.321e-09,3.278e-09,3.214e-09,1.487e-09,7.644e-09,4.024e-0
 9,6.665e-09,3.671e-09,6.406e-09,2.642e-09,2.527e-09,2.521e-09,1.331e-0
 9,5.938e-09\PG=C01 [X(C4H10)]\\@


 Any fool can criticize, condemn, and complain -- and most do.
 -- Dale Carnegie
 Job cpu time:       0 days  0 hours  0 minutes 52.4 seconds.
 File lengths (MBytes):  RWF=      5 Int=      0 D2E=      0 Chk=      2 Scr=      1
 Normal termination of Gaussian 09 at Wed Feb 19 02:54:31 2025.
