 Entering Gaussian System, Link 0=g09
 Input=/home/mayank/Desktop/software/gaussian/Gview_and_Gaussian/g09/scratch/Q1/3/hcl.com
 Output=/home/mayank/Desktop/software/gaussian/Gview_and_Gaussian/g09/scratch/Q1/3/hcl.log
 Initial command:
 /home/mayank/Desktop/software/gaussian/Gview_and_Gaussian/g09/l1.exe "/home/mayank/Desktop/software/gaussian/Gview_and_Gaussian/g09/scratch/Gau-74602.inp" -scrdir="/home/mayank/Desktop/software/gaussian/Gview_and_Gaussian/g09/scratch/"
 Entering Link 1 = /home/mayank/Desktop/software/gaussian/Gview_and_Gaussian/g09/l1.exe PID=     74605.
  
 Copyright (c) 1988,1990,1992,1993,1995,1998,2003,2009,2013,
            Gaussian, Inc.  All Rights Reserved.
  
 This is part of the Gaussian(R) 09 program.  It is based on
 the Gaussian(R) 03 system (copyright 2003, Gaussian, Inc.),
 the Gaussian(R) 98 system (copyright 1998, Gaussian, Inc.),
 the Gaussian(R) 94 system (copyright 1995, Gaussian, Inc.),
 the Gaussian 92(TM) system (copyright 1992, Gaussian, Inc.),
 the Gaussian 90(TM) system (copyright 1990, Gaussian, Inc.),
 the Gaussian 88(TM) system (copyright 1988, Gaussian, Inc.),
 the Gaussian 86(TM) system (copyright 1986, Carnegie Mellon
 University), and the Gaussian 82(TM) system (copyright 1983,
 Carnegie Mellon University). Gaussian is a federally registered
 trademark of Gaussian, Inc.
  
 This software contains proprietary and confidential information,
 including trade secrets, belonging to Gaussian, Inc.
  
 This software is provided under written license and may be
 used, copied, transmitted, or stored only in accord with that
 written license.
  
 The following legend is applicable only to US Government
 contracts under FAR:
  
                    RESTRICTED RIGHTS LEGEND
  
 Use, reproduction and disclosure by the US Government is
 subject to restrictions as set forth in subparagraphs (a)
 and (c) of the Commercial Computer Software - Restricted
 Rights clause in FAR 52.227-19.
  
 Gaussian, Inc.
 340 Quinnipiac St., Bldg. 40, Wallingford CT 06492
  
  
 ---------------------------------------------------------------
 Warning -- This program may not be used in any manner that
 competes with the business of Gaussian, Inc. or will provide
 assistance to any competitor of Gaussian, Inc.  The licensee
 of this program is prohibited from giving any competitor of
 Gaussian, Inc. access to this program.  By using this program,
 the user acknowledges that Gaussian, Inc. is engaged in the
 business of creating and licensing software in the field of
 computational chemistry and represents and warrants to the
 licensee that it is not a competitor of Gaussian, Inc. and that
 it will not use this program in any manner prohibited above.
 ---------------------------------------------------------------
  

 Cite this work as:
 Gaussian 09, Revision D.01,
 M. J. Frisch, G. W. Trucks, H. B. Schlegel, G. E. Scuseria, 
 M. A. Robb, J. R. Cheeseman, G. Scalmani, V. Barone, B. Mennucci, 
 G. A. Petersson, H. Nakatsuji, M. Caricato, X. Li, H. P. Hratchian, 
 A. F. Izmaylov, J. Bloino, G. Zheng, J. L. Sonnenberg, M. Hada, 
 M. Ehara, K. Toyota, R. Fukuda, J. Hasegawa, M. Ishida, T. Nakajima, 
 Y. Honda, O. Kitao, H. Nakai, T. Vreven, J. A. Montgomery, Jr., 
 J. E. Peralta, F. Ogliaro, M. Bearpark, J. J. Heyd, E. Brothers, 
 K. N. Kudin, V. N. Staroverov, T. Keith, R. Kobayashi, J. Normand, 
 K. Raghavachari, A. Rendell, J. C. Burant, S. S. Iyengar, J. Tomasi, 
 M. Cossi, N. Rega, J. M. Millam, M. Klene, J. E. Knox, J. B. Cross, 
 V. Bakken, C. Adamo, J. Jaramillo, R. Gomperts, R. E. Stratmann, 
 O. Yazyev, A. J. Austin, R. Cammi, C. Pomelli, J. W. Ochterski, 
 R. L. Martin, K. Morokuma, V. G. Zakrzewski, G. A. Voth, 
 P. Salvador, J. J. Dannenberg, S. Dapprich, A. D. Daniels, 
 O. Farkas, J. B. Foresman, J. V. Ortiz, J. Cioslowski, 
 and D. J. Fox, Gaussian, Inc., Wallingford CT, 2013.
 
 ******************************************
 Gaussian 09:  AM64L-G09RevD.01 24-Apr-2013
                19-Feb-2025 
 ******************************************
 %chk=hcl.chk
 --------------------------------------
 # opt freq hf/sto-3g geom=connectivity
 --------------------------------------
 1/18=20,19=15,38=1,57=2/1,3;
 2/9=110,12=2,17=6,18=5,40=1/2;
 3/6=3,11=9,16=1,25=1,30=1,71=1/1,2,3;
 4//1;
 5/5=2,38=5/2;
 6/7=2,8=2,9=2,10=2,28=1/1;
 7//1,2,3,16;
 1/18=20,19=15/3(2);
 2/9=110/2;
 99//99;
 2/9=110/2;
 3/6=3,11=9,16=1,25=1,30=1,71=1/1,2,3;
 4/5=5,16=3,69=1/1;
 5/5=2,38=5/2;
 7//1,2,3,16;
 1/18=20,19=15/3(-5);
 2/9=110/2;
 6/7=2,8=2,9=2,10=2,19=2,28=1/1;
 99/9=1/99;
 -------------------
 Title Card Required
 -------------------
 Symbolic Z-matrix:
 Charge =  0 Multiplicity = 1
 Cl                   -0.48048   0.91592   0. 
 H                    -1.77048   0.91592   0. 
 

 GradGradGradGradGradGradGradGradGradGradGradGradGradGradGradGradGradGrad
 Berny optimization.
 Initialization pass.
                           ----------------------------
                           !    Initial Parameters    !
                           ! (Angstroms and Degrees)  !
 --------------------------                            --------------------------
 ! Name  Definition              Value          Derivative Info.                !
 --------------------------------------------------------------------------------
 ! R1    R(1,2)                  1.29           estimate D2E/DX2                !
 --------------------------------------------------------------------------------
 Trust Radius=3.00D-01 FncErr=1.00D-07 GrdErr=1.00D-07
 Number of steps in this run=     20 maximum allowed number of steps=    100.
 GradGradGradGradGradGradGradGradGradGradGradGradGradGradGradGradGradGrad

                          Input orientation:                          
 ---------------------------------------------------------------------
 Center     Atomic      Atomic             Coordinates (Angstroms)
 Number     Number       Type             X           Y           Z
 ---------------------------------------------------------------------
      1         17           0       -0.480480    0.915916    0.000000
      2          1           0       -1.770480    0.915916    0.000000
 ---------------------------------------------------------------------
 Stoichiometry    ClH
 Framework group  C*V[C*(HCl)]
 Deg. of freedom     1
 Full point group                 C*V     NOp   4
 Largest Abelian subgroup         C2V     NOp   4
 Largest concise Abelian subgroup C1      NOp   1
                         Standard orientation:                         
 ---------------------------------------------------------------------
 Center     Atomic      Atomic             Coordinates (Angstroms)
 Number     Number       Type             X           Y           Z
 ---------------------------------------------------------------------
      1         17           0        0.000000    0.000000    0.071667
      2          1           0        0.000000    0.000000   -1.218333
 ---------------------------------------------------------------------
 Rotational constants (GHZ):      0.0000000    310.0218507    310.0218507
 Standard basis: STO-3G (5D, 7F)
 There are     6 symmetry adapted cartesian basis functions of A1  symmetry.
 There are     0 symmetry adapted cartesian basis functions of A2  symmetry.
 There are     2 symmetry adapted cartesian basis functions of B1  symmetry.
 There are     2 symmetry adapted cartesian basis functions of B2  symmetry.
 There are     6 symmetry adapted basis functions of A1  symmetry.
 There are     0 symmetry adapted basis functions of A2  symmetry.
 There are     2 symmetry adapted basis functions of B1  symmetry.
 There are     2 symmetry adapted basis functions of B2  symmetry.
    10 basis functions,    30 primitive gaussians,    10 cartesian basis functions
     9 alpha electrons        9 beta electrons
       nuclear repulsion energy         6.9736531365 Hartrees.
 NAtoms=    2 NActive=    2 NUniq=    2 SFac= 1.00D+00 NAtFMM=   60 NAOKFM=F Big=F
 Integral buffers will be    131072 words long.
 Raffenetti 1 integral format.
 Two-electron integral symmetry is turned on.
 One-electron integrals computed using PRISM.
 NBasis=    10 RedAO= T EigKep=  7.32D-01  NBF=     6     0     2     2
 NBsUse=    10 1.00D-06 EigRej= -1.00D+00 NBFU=     6     0     2     2
 ExpMin= 1.69D-01 ExpMax= 6.01D+02 ExpMxC= 6.01D+02 IAcc=1 IRadAn=         1 AccDes= 0.00D+00
 Harris functional with IExCor=  205 and IRadAn=       1 diagonalized for initial guess.
 HarFok:  IExCor=  205 AccDes= 0.00D+00 IRadAn=         1 IDoV= 1 UseB2=F ITyADJ=14
 ICtDFT=  3500011 ScaDFX=  1.000000  1.000000  1.000000  1.000000
 FoFCou: FMM=F IPFlag=           0 FMFlag=      100000 FMFlg1=           0
         NFxFlg=           0 DoJE=T BraDBF=F KetDBF=T FulRan=T
         wScrn=  0.000000 ICntrl=     500 IOpCl=  0 I1Cent=   200000004 NGrid=           0
         NMat0=    1 NMatS0=      1 NMatT0=    0 NMatD0=    1 NMtDS0=    0 NMtDT0=    0
 Petite list used in FoFCou.
 Initial guess orbital symmetries:
       Occupied  (SG) (SG) (SG) (PI) (PI) (SG) (SG) (PI) (PI)
       Virtual   (SG)
 The electronic state of the initial guess is 1-SG.
 Keep R1 ints in memory in symmetry-blocked form, NReq=824412.
 Requested convergence on RMS density matrix=1.00D-08 within 128 cycles.
 Requested convergence on MAX density matrix=1.00D-06.
 Requested convergence on             energy=1.00D-06.
 No special actions if energy rises.
 SCF Done:  E(RHF) =  -455.135586096     A.U. after    6 cycles
            NFock=  6  Conv=0.58D-09     -V/T= 2.0180

 **********************************************************************

            Population analysis using the SCF density.

 **********************************************************************

 Orbital symmetries:
       Occupied  (SG) (SG) (SG) (PI) (PI) (SG) (SG) (PI) (PI)
       Virtual   (SG)
 The electronic state is 1-SG.
 Alpha  occ. eigenvalues -- -103.72104 -10.40247  -7.84724  -7.84068  -7.84068
 Alpha  occ. eigenvalues --   -1.03987  -0.56109  -0.42198  -0.42198
 Alpha virt. eigenvalues --    0.39358
          Condensed to atoms (all electrons):
               1          2
     1  Cl  16.916513   0.256004
     2  H    0.256004   0.571480
 Mulliken charges:
               1
     1  Cl  -0.172517
     2  H    0.172517
 Sum of Mulliken charges =   0.00000
 Mulliken charges with hydrogens summed into heavy atoms:
               1
     1  Cl   0.000000
 Electronic spatial extent (au):  <R**2>=             31.6735
 Charge=              0.0000 electrons
 Dipole moment (field-independent basis, Debye):
    X=              0.0000    Y=              0.0000    Z=             -1.7463  Tot=              1.7463
 Quadrupole moment (field-independent basis, Debye-Ang):
   XX=            -12.5583   YY=            -12.5583   ZZ=             -9.9363
   XY=              0.0000   XZ=              0.0000   YZ=              0.0000
 Traceless Quadrupole moment (field-independent basis, Debye-Ang):
   XX=             -0.8740   YY=             -0.8740   ZZ=              1.7480
   XY=              0.0000   XZ=              0.0000   YZ=              0.0000
 Octapole moment (field-independent basis, Debye-Ang**2):
  XXX=              0.0000  YYY=              0.0000  ZZZ=             -2.0080  XYY=              0.0000
  XXY=              0.0000  XXZ=             -0.1348  XZZ=              0.0000  YZZ=              0.0000
  YYZ=             -0.1348  XYZ=              0.0000
 Hexadecapole moment (field-independent basis, Debye-Ang**3):
 XXXX=            -10.4245 YYYY=            -10.4245 ZZZZ=            -12.5578 XXXY=              0.0000
 XXXZ=              0.0000 YYYX=              0.0000 YYYZ=              0.0000 ZZZX=              0.0000
 ZZZY=              0.0000 XXYY=             -3.4748 XXZZ=             -4.3493 YYZZ=             -4.3493
 XXYZ=              0.0000 YYXZ=              0.0000 ZZXY=              0.0000
 N-N= 6.973653136457D+00 E-N=-1.091106382800D+03  KE= 4.470819644511D+02
 Symmetry A1   KE= 3.610812090951D+02
 Symmetry A2   KE= 0.000000000000D+00
 Symmetry B1   KE= 4.300037767804D+01
 Symmetry B2   KE= 4.300037767804D+01
 Calling FoFJK, ICntrl=      2127 FMM=F ISym2X=1 I1Cent= 0 IOpClX= 0 NMat=1 NMatS=1 NMatT=0.
 ***** Axes restored to original set *****
 -------------------------------------------------------------------
 Center     Atomic                   Forces (Hartrees/Bohr)
 Number     Number              X              Y              Z
 -------------------------------------------------------------------
      1       17           0.019660314    0.000000000    0.000000000
      2        1          -0.019660314    0.000000000    0.000000000
 -------------------------------------------------------------------
 Cartesian Forces:  Max     0.019660314 RMS     0.011350888

 GradGradGradGradGradGradGradGradGradGradGradGradGradGradGradGradGradGrad
 Berny optimization.
 FormGI is forming the generalized inverse of G from B-inverse, IUseBI=4.
 Internal  Forces:  Max     0.019660314 RMS     0.019660314
 Search for a local minimum.
 Step number   1 out of a maximum of   20
 All quantities printed in internal units (Hartrees-Bohrs-Radians)
 Mixed Optimization -- RFO/linear search
 Second derivative matrix not updated -- first step.
 The second derivative matrix:
                          R1
           R1           0.30863
 ITU=  0
     Eigenvalues ---    0.30863
 RFO step:  Lambda=-1.24735414D-03 EMin= 3.08630926D-01
 Linear search not attempted -- first point.
 Iteration  1 RMS(Cart)=  0.04486259 RMS(Int)=  0.00000000
 Iteration  2 RMS(Cart)=  0.00000000 RMS(Int)=  0.00000000
 ClnCor:  largest displacement from symmetrization is 0.00D+00 for atom     0.
 Variable       Old X    -DE/DX   Delta X   Delta X   Delta X     New X
                                 (Linear)    (Quad)   (Total)
    R1        2.43775   0.01966   0.00000   0.06345   0.06345   2.50119
         Item               Value     Threshold  Converged?
 Maximum Force            0.019660     0.000450     NO 
 RMS     Force            0.019660     0.000300     NO 
 Maximum Displacement     0.031723     0.001800     NO 
 RMS     Displacement     0.044863     0.001200     NO 
 Predicted change in Energy=-6.261876D-04
 GradGradGradGradGradGradGradGradGradGradGradGradGradGradGradGradGradGrad

                          Input orientation:                          
 ---------------------------------------------------------------------
 Center     Atomic      Atomic             Coordinates (Angstroms)
 Number     Number       Type             X           Y           Z
 ---------------------------------------------------------------------
      1         17           0       -0.463694    0.915916    0.000000
      2          1           0       -1.787267    0.915916    0.000000
 ---------------------------------------------------------------------
 Stoichiometry    ClH
 Framework group  C*V[C*(HCl)]
 Deg. of freedom     1
 Full point group                 C*V     NOp   4
 Largest Abelian subgroup         C2V     NOp   4
 Largest concise Abelian subgroup C1      NOp   1
                         Standard orientation:                         
 ---------------------------------------------------------------------
 Center     Atomic      Atomic             Coordinates (Angstroms)
 Number     Number       Type             X           Y           Z
 ---------------------------------------------------------------------
      1         17           0        0.000000    0.000000    0.073532
      2          1           0        0.000000    0.000000   -1.250042
 ---------------------------------------------------------------------
 Rotational constants (GHZ):      0.0000000    294.4932901    294.4932901
 Standard basis: STO-3G (5D, 7F)
 There are     6 symmetry adapted cartesian basis functions of A1  symmetry.
 There are     0 symmetry adapted cartesian basis functions of A2  symmetry.
 There are     2 symmetry adapted cartesian basis functions of B1  symmetry.
 There are     2 symmetry adapted cartesian basis functions of B2  symmetry.
 There are     6 symmetry adapted basis functions of A1  symmetry.
 There are     0 symmetry adapted basis functions of A2  symmetry.
 There are     2 symmetry adapted basis functions of B1  symmetry.
 There are     2 symmetry adapted basis functions of B2  symmetry.
    10 basis functions,    30 primitive gaussians,    10 cartesian basis functions
     9 alpha electrons        9 beta electrons
       nuclear repulsion energy         6.7967593282 Hartrees.
 NAtoms=    2 NActive=    2 NUniq=    2 SFac= 1.00D+00 NAtFMM=   60 NAOKFM=F Big=F
 Integral buffers will be    131072 words long.
 Raffenetti 1 integral format.
 Two-electron integral symmetry is turned on.
 One-electron integrals computed using PRISM.
 NBasis=    10 RedAO= T EigKep=  7.70D-01  NBF=     6     0     2     2
 NBsUse=    10 1.00D-06 EigRej= -1.00D+00 NBFU=     6     0     2     2
 Initial guess from the checkpoint file:  "hcl.chk"
 B after Tr=     0.000000    0.000000    0.000000
         Rot=    1.000000    0.000000    0.000000    0.000000 Ang=   0.00 deg.
 Initial guess orbital symmetries:
       Occupied  (SG) (SG) (SG) (PI) (PI) (SG) (SG) (PI) (PI)
       Virtual   (SG)
 ExpMin= 1.69D-01 ExpMax= 6.01D+02 ExpMxC= 6.01D+02 IAcc=1 IRadAn=         1 AccDes= 0.00D+00
 Harris functional with IExCor=  205 and IRadAn=       1 diagonalized for initial guess.
 HarFok:  IExCor=  205 AccDes= 0.00D+00 IRadAn=         1 IDoV= 1 UseB2=F ITyADJ=14
 ICtDFT=  3500011 ScaDFX=  1.000000  1.000000  1.000000  1.000000
 FoFCou: FMM=F IPFlag=           0 FMFlag=      100000 FMFlg1=           0
         NFxFlg=           0 DoJE=T BraDBF=F KetDBF=T FulRan=T
         wScrn=  0.000000 ICntrl=     500 IOpCl=  0 I1Cent=   200000004 NGrid=           0
         NMat0=    1 NMatS0=      1 NMatT0=    0 NMatD0=    1 NMtDS0=    0 NMtDT0=    0
 Petite list used in FoFCou.
 Keep R1 ints in memory in symmetry-blocked form, NReq=824412.
 Requested convergence on RMS density matrix=1.00D-08 within 128 cycles.
 Requested convergence on MAX density matrix=1.00D-06.
 Requested convergence on             energy=1.00D-06.
 No special actions if energy rises.
 SCF Done:  E(RHF) =  -455.135934031     A.U. after    5 cycles
            NFock=  5  Conv=0.36D-08     -V/T= 2.0180
 Calling FoFJK, ICntrl=      2127 FMM=F ISym2X=1 I1Cent= 0 IOpClX= 0 NMat=1 NMatS=1 NMatT=0.
 ***** Axes restored to original set *****
 -------------------------------------------------------------------
 Center     Atomic                   Forces (Hartrees/Bohr)
 Number     Number              X              Y              Z
 -------------------------------------------------------------------
      1       17          -0.007960996    0.000000000    0.000000000
      2        1           0.007960996    0.000000000    0.000000000
 -------------------------------------------------------------------
 Cartesian Forces:  Max     0.007960996 RMS     0.004596283

 GradGradGradGradGradGradGradGradGradGradGradGradGradGradGradGradGradGrad
 Berny optimization.
 Using GEDIIS/GDIIS optimizer.
 Internal  Forces:  Max     0.007960996 RMS     0.007960996
 Search for a local minimum.
 Step number   2 out of a maximum of   20
 All quantities printed in internal units (Hartrees-Bohrs-Radians)
 Mixed Optimization -- RFO/linear search
 Update second derivatives using D2CorX and points    1    2
 DE= -3.48D-04 DEPred=-6.26D-04 R= 5.56D-01
 TightC=F SS=  1.41D+00  RLast= 6.34D-02 DXNew= 5.0454D-01 1.9034D-01
 Trust test= 5.56D-01 RLast= 6.34D-02 DXMaxT set to 3.00D-01
 The second derivative matrix:
                          R1
           R1           0.43536
 ITU=  1  0
 Use linear search instead of GDIIS.
     Eigenvalues ---    0.43536
 RFO step:  Lambda= 0.00000000D+00 EMin= 4.35356416D-01
 Quartic linear search produced a step of -0.30497.
 Iteration  1 RMS(Cart)=  0.01368166 RMS(Int)=  0.00000000
 Iteration  2 RMS(Cart)=  0.00000000 RMS(Int)=  0.00000000
 ClnCor:  largest displacement from symmetrization is 4.44D-16 for atom     2.
 Variable       Old X    -DE/DX   Delta X   Delta X   Delta X     New X
                                 (Linear)    (Quad)   (Total)
    R1        2.50119  -0.00796  -0.01935   0.00000  -0.01935   2.48184
         Item               Value     Threshold  Converged?
 Maximum Force            0.007961     0.000450     NO 
 RMS     Force            0.007961     0.000300     NO 
 Maximum Displacement     0.009674     0.001800     NO 
 RMS     Displacement     0.013682     0.001200     NO 
 Predicted change in Energy=-7.254220D-05
 GradGradGradGradGradGradGradGradGradGradGradGradGradGradGradGradGradGrad

                          Input orientation:                          
 ---------------------------------------------------------------------
 Center     Atomic      Atomic             Coordinates (Angstroms)
 Number     Number       Type             X           Y           Z
 ---------------------------------------------------------------------
      1         17           0       -0.468813    0.915916    0.000000
      2          1           0       -1.782148    0.915916    0.000000
 ---------------------------------------------------------------------
 Stoichiometry    ClH
 Framework group  C*V[C*(HCl)]
 Deg. of freedom     1
 Full point group                 C*V     NOp   4
 Largest Abelian subgroup         C2V     NOp   4
 Largest concise Abelian subgroup C1      NOp   1
                         Standard orientation:                         
 ---------------------------------------------------------------------
 Center     Atomic      Atomic             Coordinates (Angstroms)
 Number     Number       Type             X           Y           Z
 ---------------------------------------------------------------------
      1         17           0        0.000000    0.000000    0.072963
      2          1           0        0.000000    0.000000   -1.240372
 ---------------------------------------------------------------------
 Rotational constants (GHZ):      0.0000000    299.1030101    299.1030101
 Standard basis: STO-3G (5D, 7F)
 There are     6 symmetry adapted cartesian basis functions of A1  symmetry.
 There are     0 symmetry adapted cartesian basis functions of A2  symmetry.
 There are     2 symmetry adapted cartesian basis functions of B1  symmetry.
 There are     2 symmetry adapted cartesian basis functions of B2  symmetry.
 There are     6 symmetry adapted basis functions of A1  symmetry.
 There are     0 symmetry adapted basis functions of A2  symmetry.
 There are     2 symmetry adapted basis functions of B1  symmetry.
 There are     2 symmetry adapted basis functions of B2  symmetry.
    10 basis functions,    30 primitive gaussians,    10 cartesian basis functions
     9 alpha electrons        9 beta electrons
       nuclear repulsion energy         6.8497478022 Hartrees.
 NAtoms=    2 NActive=    2 NUniq=    2 SFac= 1.00D+00 NAtFMM=   60 NAOKFM=F Big=F
 Integral buffers will be    131072 words long.
 Raffenetti 1 integral format.
 Two-electron integral symmetry is turned on.
 One-electron integrals computed using PRISM.
 NBasis=    10 RedAO= T EigKep=  7.59D-01  NBF=     6     0     2     2
 NBsUse=    10 1.00D-06 EigRej= -1.00D+00 NBFU=     6     0     2     2
 Initial guess from the checkpoint file:  "hcl.chk"
 B after Tr=     0.000000    0.000000    0.000000
         Rot=    1.000000    0.000000    0.000000    0.000000 Ang=   0.00 deg.
 Initial guess orbital symmetries:
       Occupied  (SG) (SG) (SG) (PI) (PI) (SG) (SG) (PI) (PI)
       Virtual   (SG)
 Keep R1 ints in memory in symmetry-blocked form, NReq=824412.
 Requested convergence on RMS density matrix=1.00D-08 within 128 cycles.
 Requested convergence on MAX density matrix=1.00D-06.
 Requested convergence on             energy=1.00D-06.
 No special actions if energy rises.
 SCF Done:  E(RHF) =  -455.136011655     A.U. after    5 cycles
            NFock=  5  Conv=0.12D-08     -V/T= 2.0180
 Calling FoFJK, ICntrl=      2127 FMM=F ISym2X=1 I1Cent= 0 IOpClX= 0 NMat=1 NMatS=1 NMatT=0.
 ***** Axes restored to original set *****
 -------------------------------------------------------------------
 Center     Atomic                   Forces (Hartrees/Bohr)
 Number     Number              X              Y              Z
 -------------------------------------------------------------------
      1       17           0.000001955    0.000000000    0.000000000
      2        1          -0.000001955    0.000000000    0.000000000
 -------------------------------------------------------------------
 Cartesian Forces:  Max     0.000001955 RMS     0.000001129

 GradGradGradGradGradGradGradGradGradGradGradGradGradGradGradGradGradGrad
 Berny optimization.
 Using GEDIIS/GDIIS optimizer.
 Internal  Forces:  Max     0.000001955 RMS     0.000001955
 Search for a local minimum.
 Step number   3 out of a maximum of   20
 All quantities printed in internal units (Hartrees-Bohrs-Radians)
 Mixed Optimization -- En-DIIS/RFO-DIIS
 Update second derivatives using D2CorX and points    2    3
 DE= -7.76D-05 DEPred=-7.25D-05 R= 1.07D+00
 TightC=F SS=  1.41D+00  RLast= 1.93D-02 DXNew= 5.0454D-01 5.8046D-02
 Trust test= 1.07D+00 RLast= 1.93D-02 DXMaxT set to 3.00D-01
 The second derivative matrix:
                          R1
           R1           0.41155
 ITU=  1  1
 Use linear search instead of GDIIS.
     Eigenvalues ---    0.41155
 RFO step:  Lambda= 0.00000000D+00 EMin= 4.11547661D-01
 Quartic linear search produced a step of -0.00024.
 Iteration  1 RMS(Cart)=  0.00000328 RMS(Int)=  0.00000000
 Iteration  2 RMS(Cart)=  0.00000000 RMS(Int)=  0.00000000
 ClnCor:  largest displacement from symmetrization is 0.00D+00 for atom     0.
 Variable       Old X    -DE/DX   Delta X   Delta X   Delta X     New X
                                 (Linear)    (Quad)   (Total)
    R1        2.48184   0.00000   0.00000   0.00000   0.00000   2.48185
         Item               Value     Threshold  Converged?
 Maximum Force            0.000002     0.000450     YES
 RMS     Force            0.000002     0.000300     YES
 Maximum Displacement     0.000002     0.001800     YES
 RMS     Displacement     0.000003     0.001200     YES
 Predicted change in Energy=-4.639196D-12
 Optimization completed.
    -- Stationary point found.
                           ----------------------------
                           !   Optimized Parameters   !
                           ! (Angstroms and Degrees)  !
 --------------------------                            --------------------------
 ! Name  Definition              Value          Derivative Info.                !
 --------------------------------------------------------------------------------
 ! R1    R(1,2)                  1.3133         -DE/DX =    0.0                 !
 --------------------------------------------------------------------------------
 GradGradGradGradGradGradGradGradGradGradGradGradGradGradGradGradGradGrad

                          Input orientation:                          
 ---------------------------------------------------------------------
 Center     Atomic      Atomic             Coordinates (Angstroms)
 Number     Number       Type             X           Y           Z
 ---------------------------------------------------------------------
      1         17           0       -0.468813    0.915916    0.000000
      2          1           0       -1.782148    0.915916    0.000000
 ---------------------------------------------------------------------
 Stoichiometry    ClH
 Framework group  C*V[C*(HCl)]
 Deg. of freedom     1
 Full point group                 C*V     NOp   4
 Largest Abelian subgroup         C2V     NOp   4
 Largest concise Abelian subgroup C1      NOp   1
                         Standard orientation:                         
 ---------------------------------------------------------------------
 Center     Atomic      Atomic             Coordinates (Angstroms)
 Number     Number       Type             X           Y           Z
 ---------------------------------------------------------------------
      1         17           0        0.000000    0.000000    0.072963
      2          1           0        0.000000    0.000000   -1.240372
 ---------------------------------------------------------------------
 Rotational constants (GHZ):      0.0000000    299.1030101    299.1030101

 **********************************************************************

            Population analysis using the SCF density.

 **********************************************************************

 Orbital symmetries:
       Occupied  (SG) (SG) (SG) (PI) (PI) (SG) (SG) (PI) (PI)
       Virtual   (SG)
 The electronic state is 1-SG.
 Alpha  occ. eigenvalues -- -103.71879 -10.40017  -7.84482  -7.83847  -7.83847
 Alpha  occ. eigenvalues --   -1.03426  -0.55577  -0.42021  -0.42021
 Alpha virt. eigenvalues --    0.37781
          Condensed to atoms (all electrons):
               1          2
     1  Cl  16.919288   0.254334
     2  H    0.254334   0.572044
 Mulliken charges:
               1
     1  Cl  -0.173622
     2  H    0.173622
 Sum of Mulliken charges =   0.00000
 Mulliken charges with hydrogens summed into heavy atoms:
               1
     1  Cl   0.000000
 Electronic spatial extent (au):  <R**2>=             31.8253
 Charge=              0.0000 electrons
 Dipole moment (field-independent basis, Debye):
    X=              0.0000    Y=              0.0000    Z=             -1.7650  Tot=              1.7650
 Quadrupole moment (field-independent basis, Debye-Ang):
   XX=            -12.5630   YY=            -12.5630   ZZ=             -9.8556
   XY=              0.0000   XZ=              0.0000   YZ=              0.0000
 Traceless Quadrupole moment (field-independent basis, Debye-Ang):
   XX=             -0.9025   YY=             -0.9025   ZZ=              1.8050
   XY=              0.0000   XZ=              0.0000   YZ=              0.0000
 Octapole moment (field-independent basis, Debye-Ang**2):
  XXX=              0.0000  YYY=              0.0000  ZZZ=             -2.1496  XYY=              0.0000
  XXY=              0.0000  XXZ=             -0.1299  XZZ=              0.0000  YZZ=              0.0000
  YYZ=             -0.1299  XYZ=              0.0000
 Hexadecapole moment (field-independent basis, Debye-Ang**3):
 XXXX=            -10.4305 YYYY=            -10.4305 ZZZZ=            -12.5046 XXXY=              0.0000
 XXXZ=              0.0000 YYYX=              0.0000 YYYZ=              0.0000 ZZZX=              0.0000
 ZZZY=              0.0000 XXYY=             -3.4768 XXZZ=             -4.3871 YYZZ=             -4.3871
 XXYZ=              0.0000 YYXZ=              0.0000 ZZXY=              0.0000
 N-N= 6.849747802228D+00 E-N=-1.090902929565D+03  KE= 4.470737696305D+02
 Symmetry A1   KE= 3.610730142744D+02
 Symmetry A2   KE= 0.000000000000D+00
 Symmetry B1   KE= 4.300037767804D+01
 Symmetry B2   KE= 4.300037767804D+01
 1\1\GINC-MAYANK-HP\FOpt\RHF\STO-3G\Cl1H1\MAYANK\19-Feb-2025\0\\# opt f
 req hf/sto-3g geom=connectivity\\Title Card Required\\0,1\Cl,-0.468813
 0518,0.9159159,0.\H,-1.7821479082,0.9159159,0.\\Version=AM64L-G09RevD.
 01\State=1-SG\HF=-455.1360117\RMSD=1.198e-09\RMSF=1.129e-06\Dipole=-0.
 6944111,0.,0.\Quadrupole=1.3419493,-0.6709746,-0.6709746,0.,0.,0.\PG=C
 *V [C*(H1Cl1)]\\@


 Sometimes the fool who rushes in gets the job done.
                                    -- Al Bernstein
 Job cpu time:       0 days  0 hours  0 minutes  1.4 seconds.
 File lengths (MBytes):  RWF=      5 Int=      0 D2E=      0 Chk=      1 Scr=      1
 Normal termination of Gaussian 09 at Wed Feb 19 03:43:17 2025.
 Link1:  Proceeding to internal job step number  2.
 ---------------------------------------------------------------
 #N Geom=AllCheck Guess=TCheck SCRF=Check GenChk RHF/STO-3G Freq
 ---------------------------------------------------------------
 1/10=4,29=7,30=1,38=1,40=1/1,3;
 2/12=2,40=1/2;
 3/6=3,11=1,14=-4,16=1,25=1,30=1,70=2,71=2,116=1,140=1/1,2,3;
 4/5=101/1;
 5/5=2,98=1/2;
 8/6=4,10=90,11=11/1;
 10/13=10,15=4/2;
 11/6=3,8=1,9=11,15=111,16=1/1,2,10;
 10/6=1/2;
 6/7=2,8=2,9=2,10=2,18=1,28=1/1;
 7/8=1,10=1,25=1/1,2,3,16;
 1/10=4,30=1/3;
 99//99;
 Structure from the checkpoint file:  "hcl.chk"
 -------------------
 Title Card Required
 -------------------
 Charge =  0 Multiplicity = 1
 Redundant internal coordinates found in file.
 Cl,0,-0.4688130518,0.9159159,0.
 H,0,-1.7821479082,0.9159159,0.
 Recover connectivity data from disk.

 GradGradGradGradGradGradGradGradGradGradGradGradGradGradGradGradGradGrad
 Berny optimization.
 Initialization pass.
                           ----------------------------
                           !    Initial Parameters    !
                           ! (Angstroms and Degrees)  !
 --------------------------                            --------------------------
 ! Name  Definition              Value          Derivative Info.                !
 --------------------------------------------------------------------------------
 ! R1    R(1,2)                  1.3133         calculate D2E/DX2 analytically  !
 --------------------------------------------------------------------------------
 Trust Radius=3.00D-01 FncErr=1.00D-07 GrdErr=1.00D-07
 Number of steps in this run=      2 maximum allowed number of steps=      2.
 GradGradGradGradGradGradGradGradGradGradGradGradGradGradGradGradGradGrad

                          Input orientation:                          
 ---------------------------------------------------------------------
 Center     Atomic      Atomic             Coordinates (Angstroms)
 Number     Number       Type             X           Y           Z
 ---------------------------------------------------------------------
      1         17           0       -0.468813    0.915916    0.000000
      2          1           0       -1.782148    0.915916    0.000000
 ---------------------------------------------------------------------
 Stoichiometry    ClH
 Framework group  C*V[C*(HCl)]
 Deg. of freedom     1
 Full point group                 C*V     NOp   4
 Largest Abelian subgroup         C2V     NOp   4
 Largest concise Abelian subgroup C1      NOp   1
                         Standard orientation:                         
 ---------------------------------------------------------------------
 Center     Atomic      Atomic             Coordinates (Angstroms)
 Number     Number       Type             X           Y           Z
 ---------------------------------------------------------------------
      1         17           0        0.000000    0.000000    0.072963
      2          1           0        0.000000    0.000000   -1.240372
 ---------------------------------------------------------------------
 Rotational constants (GHZ):      0.0000000    299.1030101    299.1030101
 Standard basis: STO-3G (5D, 7F)
 There are     6 symmetry adapted cartesian basis functions of A1  symmetry.
 There are     0 symmetry adapted cartesian basis functions of A2  symmetry.
 There are     2 symmetry adapted cartesian basis functions of B1  symmetry.
 There are     2 symmetry adapted cartesian basis functions of B2  symmetry.
 There are     6 symmetry adapted basis functions of A1  symmetry.
 There are     0 symmetry adapted basis functions of A2  symmetry.
 There are     2 symmetry adapted basis functions of B1  symmetry.
 There are     2 symmetry adapted basis functions of B2  symmetry.
    10 basis functions,    30 primitive gaussians,    10 cartesian basis functions
     9 alpha electrons        9 beta electrons
       nuclear repulsion energy         6.8497478022 Hartrees.
 NAtoms=    2 NActive=    2 NUniq=    2 SFac= 1.00D+00 NAtFMM=   60 NAOKFM=F Big=F
 Integral buffers will be    131072 words long.
 Raffenetti 1 integral format.
 Two-electron integral symmetry is turned on.
 One-electron integrals computed using PRISM.
 NBasis=    10 RedAO= T EigKep=  7.59D-01  NBF=     6     0     2     2
 NBsUse=    10 1.00D-06 EigRej= -1.00D+00 NBFU=     6     0     2     2
 Initial guess from the checkpoint file:  "hcl.chk"
 B after Tr=     0.000000    0.000000    0.000000
         Rot=    1.000000    0.000000    0.000000    0.000000 Ang=   0.00 deg.
 Initial guess orbital symmetries:
       Occupied  (SG) (SG) (SG) (PI) (PI) (SG) (SG) (PI) (PI)
       Virtual   (SG)
 Keep R1 ints in memory in symmetry-blocked form, NReq=824412.
 Requested convergence on RMS density matrix=1.00D-08 within 128 cycles.
 Requested convergence on MAX density matrix=1.00D-06.
 Requested convergence on             energy=1.00D-06.
 No special actions if energy rises.
 Skip diagonalization as Alpha Fock matrix is already diagonal.
 SCF Done:  E(RHF) =  -455.136011655     A.U. after    1 cycles
            NFock=  1  Conv=0.00D+00     -V/T= 2.0180
 Range of M.O.s used for correlation:     1    10
 NBasis=    10 NAE=     9 NBE=     9 NFC=     0 NFV=     0
 NROrb=     10 NOA=     9 NOB=     9 NVA=     1 NVB=     1
          Differentiating once with respect to electric field.
                with respect to dipole field.
          Electric field/nuclear overlap derivatives assumed to be zero.
 Keep R1 ints in memory in symmetry-blocked form, NReq=805677.
          There are     3 degrees of freedom in the 1st order CPHF.  IDoFFX=0 NUNeed=     3.
      3 vectors produced by pass  0 Test12= 3.00D-16 3.33D-08 XBig12= 1.98D+00 1.40D+00.
 AX will form     3 AO Fock derivatives at one time.
      3 vectors produced by pass  1 Test12= 3.00D-16 3.33D-08 XBig12= 4.34D-04 2.05D-02.
      1 vectors produced by pass  2 Test12= 3.00D-16 3.33D-08 XBig12= 2.50D-07 4.33D-04.
      1 vectors produced by pass  3 Test12= 3.00D-16 3.33D-08 XBig12= 5.17D-12 1.98D-06.
 InvSVY:  IOpt=1 It=  1 EMax= 2.22D-16
 Solved reduced A of dimension     8 with     3 vectors.
 End of Minotr F.D. properties file   721 does not exist.
 End of Minotr F.D. properties file   722 does not exist.
 End of Minotr F.D. properties file   788 does not exist.
 Symmetrizing basis deriv contribution to polar:
 IMax=3 JMax=2 DiffMx= 0.00D+00
 G2DrvN: will do     3 centers at a time, making    1 passes.
 PxScal for G2LodP:  IOpCl= 0 ISclPx=1 IMOff=     1 NMtTot=     4 NTT=      55 ScalPx= 1.98D+00
 Calling FoFCou, ICntrl=  3107 FMM=F I1Cent=   0 AccDes= 0.00D+00.
 End of G2Drv F.D. properties file   721 does not exist.
 End of G2Drv F.D. properties file   722 does not exist.
 End of G2Drv F.D. properties file   788 does not exist.
          IDoAtm=11
          Differentiating once with respect to electric field.
                with respect to dipole field.
          Differentiating once with respect to nuclear coordinates.
 Keep R1 ints in memory in symmetry-blocked form, NReq=805723.
          There are     9 degrees of freedom in the 1st order CPHF.  IDoFFX=5 NUNeed=     9.
 Will reuse    3 saved solutions.
      3 vectors produced by pass  0 Test12= 1.00D-16 1.11D-08 XBig12= 9.14D-03 9.56D-02.
 AX will form     3 AO Fock derivatives at one time.
      3 vectors produced by pass  1 Test12= 1.00D-16 1.11D-08 XBig12= 3.25D-06 1.26D-03.
      1 vectors produced by pass  2 Test12= 1.00D-16 1.11D-08 XBig12= 4.27D-10 1.68D-05.
      1 vectors produced by pass  3 Test12= 1.00D-16 1.11D-08 XBig12= 1.08D-13 2.27D-07.
 InvSVY:  IOpt=1 It=  1 EMax= 1.11D-16
 Solved reduced A of dimension     8 with     3 vectors.
 Isotropic polarizability for W=    0.000000        2.83 Bohr**3.
 End of Minotr F.D. properties file   721 does not exist.
 End of Minotr F.D. properties file   722 does not exist.
 End of Minotr F.D. properties file   788 does not exist.

 **********************************************************************

            Population analysis using the SCF density.

 **********************************************************************

 Orbital symmetries:
       Occupied  (SG) (SG) (SG) (PI) (PI) (SG) (SG) (PI) (PI)
       Virtual   (SG)
 The electronic state is 1-SG.
 Alpha  occ. eigenvalues -- -103.71879 -10.40017  -7.84482  -7.83847  -7.83847
 Alpha  occ. eigenvalues --   -1.03426  -0.55577  -0.42021  -0.42021
 Alpha virt. eigenvalues --    0.37781
          Condensed to atoms (all electrons):
               1          2
     1  Cl  16.919288   0.254334
     2  H    0.254334   0.572044
 Mulliken charges:
               1
     1  Cl  -0.173622
     2  H    0.173622
 Sum of Mulliken charges =   0.00000
 Mulliken charges with hydrogens summed into heavy atoms:
               1
     1  Cl   0.000000
 APT charges:
               1
     1  Cl  -0.242330
     2  H    0.242330
 Sum of APT charges =   0.00000
 APT charges with hydrogens summed into heavy atoms:
               1
     1  Cl   0.000000
 Electronic spatial extent (au):  <R**2>=             31.8253
 Charge=              0.0000 electrons
 Dipole moment (field-independent basis, Debye):
    X=              0.0000    Y=              0.0000    Z=             -1.7650  Tot=              1.7650
 Quadrupole moment (field-independent basis, Debye-Ang):
   XX=            -12.5630   YY=            -12.5630   ZZ=             -9.8556
   XY=              0.0000   XZ=              0.0000   YZ=              0.0000
 Traceless Quadrupole moment (field-independent basis, Debye-Ang):
   XX=             -0.9025   YY=             -0.9025   ZZ=              1.8050
   XY=              0.0000   XZ=              0.0000   YZ=              0.0000
 Octapole moment (field-independent basis, Debye-Ang**2):
  XXX=              0.0000  YYY=              0.0000  ZZZ=             -2.1496  XYY=              0.0000
  XXY=              0.0000  XXZ=             -0.1299  XZZ=              0.0000  YZZ=              0.0000
  YYZ=             -0.1299  XYZ=              0.0000
 Hexadecapole moment (field-independent basis, Debye-Ang**3):
 XXXX=            -10.4305 YYYY=            -10.4305 ZZZZ=            -12.5046 XXXY=              0.0000
 XXXZ=              0.0000 YYYX=              0.0000 YYYZ=              0.0000 ZZZX=              0.0000
 ZZZY=              0.0000 XXYY=             -3.4768 XXZZ=             -4.3871 YYZZ=             -4.3871
 XXYZ=              0.0000 YYXZ=              0.0000 ZZXY=              0.0000
 N-N= 6.849747802228D+00 E-N=-1.090902929565D+03  KE= 4.470737696305D+02
 Symmetry A1   KE= 3.610730142744D+02
 Symmetry A2   KE= 0.000000000000D+00
 Symmetry B1   KE= 4.300037767804D+01
 Symmetry B2   KE= 4.300037767804D+01
  Exact polarizability:   0.213   0.000   0.213   0.000   0.000   8.053
 Approx polarizability:   0.119   0.000   0.119   0.000   0.000   7.402
 Calling FoFJK, ICntrl=    100127 FMM=F ISym2X=1 I1Cent= 0 IOpClX= 0 NMat=1 NMatS=1 NMatT=0.
 Full mass-weighted force constant matrix:
 Low frequencies ---   -4.6093   -4.6093   -0.0061   -0.0061   -0.0057 3372.5361
 Diagonal vibrational polarizability:
        0.0000000       0.0000000       0.0659809
 Diagonal vibrational hyperpolarizability:
        0.0000000       0.0000000      -3.0912951
 Harmonic frequencies (cm**-1), IR intensities (KM/Mole), Raman scattering
 activities (A**4/AMU), depolarization ratios for plane and unpolarized
 incident light, reduced masses (AMU), force constants (mDyne/A),
 and normal coordinates:
                      1
                     SG
 Frequencies --   3372.5361
 Red. masses --      1.0360
 Frc consts  --      6.9427
 IR Inten    --     27.8868
 Raman Activ --     58.7253
 Depolar (P) --      0.3478
 Depolar (U) --      0.5162
  Atom  AN      X      Y      Z
     1  17     0.00   0.00   0.03
     2   1     0.00   0.00  -1.00

 -------------------
 - Thermochemistry -
 -------------------
 Temperature   298.150 Kelvin.  Pressure   1.00000 Atm.
 Atom     1 has atomic number 17 and mass  34.96885
 Atom     2 has atomic number  1 and mass   1.00783
 Molecular mass:    35.97668 amu.
 Principal axes and moments of inertia in atomic units:
                           1         2         3
     Eigenvalues --     0.00000   6.03385   6.03385
           X            0.00000   0.00000   1.00000
           Y            0.00000   1.00000   0.00000
           Z            1.00000   0.00000   0.00000
 This molecule is a prolate symmetric top.
 Rotational symmetry number  1.
 Rotational temperature (Kelvin)     14.35466
 Rotational constant (GHZ):         299.103010
 Zero-point vibrational energy      20172.2 (Joules/Mol)
                                    4.82128 (Kcal/Mol)
 Vibrational temperatures:   4852.32
          (Kelvin)
 
 Zero-point correction=                           0.007683 (Hartree/Particle)
 Thermal correction to Energy=                    0.010044
 Thermal correction to Enthalpy=                  0.010988
 Thermal correction to Gibbs Free Energy=        -0.010244
 Sum of electronic and zero-point Energies=           -455.128328
 Sum of electronic and thermal Energies=              -455.125968
 Sum of electronic and thermal Enthalpies=            -455.125024
 Sum of electronic and thermal Free Energies=         -455.146256
 
                     E (Thermal)             CV                S
                      KCal/Mol        Cal/Mol-Kelvin    Cal/Mol-Kelvin
 Total                    6.302              4.968             44.686
 Electronic               0.000              0.000              0.000
 Translational            0.889              2.981             36.671
 Rotational               0.592              1.987              8.015
 Vibrational              4.821              0.000              0.000
                       Q            Log10(Q)             Ln(Q)
 Total Bot       0.515120D+05          4.711908         10.849570
 Total V=0       0.176169D+09          8.245929         18.986952
 Vib (Bot)       0.292402D-03         -3.534020         -8.137382
 Vib (V=0)       0.100000D+01          0.000000          0.000000
 Electronic      0.100000D+01          0.000000          0.000000
 Translational   0.848178D+07          6.928487         15.953430
 Rotational      0.207703D+02          1.317442          3.033522
 ***** Axes restored to original set *****
 -------------------------------------------------------------------
 Center     Atomic                   Forces (Hartrees/Bohr)
 Number     Number              X              Y              Z
 -------------------------------------------------------------------
      1       17           0.000001955    0.000000000    0.000000000
      2        1          -0.000001955    0.000000000    0.000000000
 -------------------------------------------------------------------
 Cartesian Forces:  Max     0.000001955 RMS     0.000001129
 FormGI is forming the generalized inverse of G from B-inverse, IUseBI=4.

 GradGradGradGradGradGradGradGradGradGradGradGradGradGradGradGradGradGrad
 Berny optimization.
 Internal  Forces:  Max     0.000001955 RMS     0.000001955
 Search for a local minimum.
 Step number   1 out of a maximum of    2
 All quantities printed in internal units (Hartrees-Bohrs-Radians)
 Second derivative matrix not updated -- analytic derivatives used.
 The second derivative matrix:
                          R1
           R1           0.42165
 ITU=  0
     Eigenvalues ---    0.42165
 Angle between quadratic step and forces=   0.00 degrees.
 Linear search not attempted -- first point.
 Iteration  1 RMS(Cart)=  0.00000328 RMS(Int)=  0.00000000
 Iteration  2 RMS(Cart)=  0.00000000 RMS(Int)=  0.00000000
 ClnCor:  largest displacement from symmetrization is 0.00D+00 for atom     0.
 Variable       Old X    -DE/DX   Delta X   Delta X   Delta X     New X
                                 (Linear)    (Quad)   (Total)
    R1        2.48184   0.00000   0.00000   0.00000   0.00000   2.48185
         Item               Value     Threshold  Converged?
 Maximum Force            0.000002     0.000450     YES
 RMS     Force            0.000002     0.000300     YES
 Maximum Displacement     0.000002     0.001800     YES
 RMS     Displacement     0.000003     0.001200     YES
 Predicted change in Energy=-4.531395D-12
 Optimization completed.
    -- Stationary point found.
                           ----------------------------
                           !   Optimized Parameters   !
                           ! (Angstroms and Degrees)  !
 --------------------------                            --------------------------
 ! Name  Definition              Value          Derivative Info.                !
 --------------------------------------------------------------------------------
 ! R1    R(1,2)                  1.3133         -DE/DX =    0.0                 !
 --------------------------------------------------------------------------------
 GradGradGradGradGradGradGradGradGradGradGradGradGradGradGradGradGradGrad

 1\1\GINC-MAYANK-HP\Freq\RHF\STO-3G\Cl1H1\MAYANK\19-Feb-2025\0\\#N Geom
 =AllCheck Guess=TCheck SCRF=Check GenChk RHF/STO-3G Freq\\Title Card R
 equired\\0,1\Cl,-0.4688130518,0.9159159,0.\H,-1.7821479082,0.9159159,0
 .\\Version=AM64L-G09RevD.01\State=1-SG\HF=-455.1360117\RMSD=0.000e+00\
 RMSF=1.129e-06\ZeroPoint=0.0076832\Thermal=0.0100437\Dipole=-0.6944111
 ,0.,0.\DipoleDeriv=-0.1673965,0.,0.,0.,-0.2797965,0.,0.,0.,-0.2797965,
 0.1673965,0.,0.,0.,0.2797965,0.,0.,0.,0.2797965\Polar=8.0534628,0.,0.2
 126909,0.,0.,0.2126909\PolarDeriv=7.8427518,0.,-0.1013802,0.,0.,-0.101
 3802,0.,3.1592535,0.,0.,0.,0.,0.,0.,0.,3.1592535,0.,0.,-7.8427518,0.,0
 .1013802,0.,0.,0.1013802,0.,-3.1592535,0.,0.,0.,0.,0.,0.,0.,-3.1592535
 ,0.,0.\HyperPolar=-23.5290285,0.,0.5238143,0.,0.,0.,0.,0.5238143,0.,0.
 \PG=C*V [C*(H1Cl1)]\NImag=0\\0.42164807,0.,-0.00000079,0.,0.,-0.000000
 79,-0.42164807,0.,0.,0.42164807,0.,0.00000079,0.,0.,-0.00000079,0.,0.,
 0.00000079,0.,0.,-0.00000079\\-0.00000195,0.,0.,0.00000195,0.,0.\\\@


            ARSENIC

 FOR SMELTER FUMES HAVE I BEEN NAMED,
    I AM AN EVIL POISONOUS SMOKE...
 BUT WHEN FROM POISON I AM FREED,
    THROUGH ART AND SLEIGHT OF HAND,
 THEN CAN I CURE BOTH MAN AND BEAST,
    FROM DIRE DISEASE OFTTIMES DIRECT THEM;
 BUT PREPARE ME CORRECTLY, AND TAKE GREAT CARE
    THAT YOU FAITHFULLY KEEP WATCHFUL GUARD OVER ME;
 FOR ELSE I AM POISON, AND POISON REMAIN,
    THAT PIERCES THE HEART OF MANY A ONE.

 ATTRIBUTED TO THE PROBABLY MYTHICAL 15TH
 CENTURY MONK, BASILIUS VALENTINUS
 Job cpu time:       0 days  0 hours  0 minutes  0.9 seconds.
 File lengths (MBytes):  RWF=      5 Int=      0 D2E=      0 Chk=      1 Scr=      1
 Normal termination of Gaussian 09 at Wed Feb 19 03:43:18 2025.
