 Entering Gaussian System, Link 0=g09
 Input=/home/mayank/Desktop/software/gaussian/Gview_and_Gaussian/g09/scratch/Q1/3/nacl.com
 Output=/home/mayank/Desktop/software/gaussian/Gview_and_Gaussian/g09/scratch/Q1/3/nacl.log
 Initial command:
 /home/mayank/Desktop/software/gaussian/Gview_and_Gaussian/g09/l1.exe "/home/mayank/Desktop/software/gaussian/Gview_and_Gaussian/g09/scratch/Gau-74976.inp" -scrdir="/home/mayank/Desktop/software/gaussian/Gview_and_Gaussian/g09/scratch/"
 Entering Link 1 = /home/mayank/Desktop/software/gaussian/Gview_and_Gaussian/g09/l1.exe PID=     74979.
  
 Copyright (c) 1988,1990,1992,1993,1995,1998,2003,2009,2013,
            Gaussian, Inc.  All Rights Reserved.
  
 This is part of the Gaussian(R) 09 program.  It is based on
 the Gaussian(R) 03 system (copyright 2003, Gaussian, Inc.),
 the Gaussian(R) 98 system (copyright 1998, Gaussian, Inc.),
 the Gaussian(R) 94 system (copyright 1995, Gaussian, Inc.),
 the Gaussian 92(TM) system (copyright 1992, Gaussian, Inc.),
 the Gaussian 90(TM) system (copyright 1990, Gaussian, Inc.),
 the Gaussian 88(TM) system (copyright 1988, Gaussian, Inc.),
 the Gaussian 86(TM) system (copyright 1986, Carnegie Mellon
 University), and the Gaussian 82(TM) system (copyright 1983,
 Carnegie Mellon University). Gaussian is a federally registered
 trademark of Gaussian, Inc.
  
 This software contains proprietary and confidential information,
 including trade secrets, belonging to Gaussian, Inc.
  
 This software is provided under written license and may be
 used, copied, transmitted, or stored only in accord with that
 written license.
  
 The following legend is applicable only to US Government
 contracts under FAR:
  
                    RESTRICTED RIGHTS LEGEND
  
 Use, reproduction and disclosure by the US Government is
 subject to restrictions as set forth in subparagraphs (a)
 and (c) of the Commercial Computer Software - Restricted
 Rights clause in FAR 52.227-19.
  
 Gaussian, Inc.
 340 Quinnipiac St., Bldg. 40, Wallingford CT 06492
  
  
 ---------------------------------------------------------------
 Warning -- This program may not be used in any manner that
 competes with the business of Gaussian, Inc. or will provide
 assistance to any competitor of Gaussian, Inc.  The licensee
 of this program is prohibited from giving any competitor of
 Gaussian, Inc. access to this program.  By using this program,
 the user acknowledges that Gaussian, Inc. is engaged in the
 business of creating and licensing software in the field of
 computational chemistry and represents and warrants to the
 licensee that it is not a competitor of Gaussian, Inc. and that
 it will not use this program in any manner prohibited above.
 ---------------------------------------------------------------
  

 Cite this work as:
 Gaussian 09, Revision D.01,
 M. J. Frisch, G. W. Trucks, H. B. Schlegel, G. E. Scuseria, 
 M. A. Robb, J. R. Cheeseman, G. Scalmani, V. Barone, B. Mennucci, 
 G. A. Petersson, H. Nakatsuji, M. Caricato, X. Li, H. P. Hratchian, 
 A. F. Izmaylov, J. Bloino, G. Zheng, J. L. Sonnenberg, M. Hada, 
 M. Ehara, K. Toyota, R. Fukuda, J. Hasegawa, M. Ishida, T. Nakajima, 
 Y. Honda, O. Kitao, H. Nakai, T. Vreven, J. A. Montgomery, Jr., 
 J. E. Peralta, F. Ogliaro, M. Bearpark, J. J. Heyd, E. Brothers, 
 K. N. Kudin, V. N. Staroverov, T. Keith, R. Kobayashi, J. Normand, 
 K. Raghavachari, A. Rendell, J. C. Burant, S. S. Iyengar, J. Tomasi, 
 M. Cossi, N. Rega, J. M. Millam, M. Klene, J. E. Knox, J. B. Cross, 
 V. Bakken, C. Adamo, J. Jaramillo, R. Gomperts, R. E. Stratmann, 
 O. Yazyev, A. J. Austin, R. Cammi, C. Pomelli, J. W. Ochterski, 
 R. L. Martin, K. Morokuma, V. G. Zakrzewski, G. A. Voth, 
 P. Salvador, J. J. Dannenberg, S. Dapprich, A. D. Daniels, 
 O. Farkas, J. B. Foresman, J. V. Ortiz, J. Cioslowski, 
 and D. J. Fox, Gaussian, Inc., Wallingford CT, 2013.
 
 ******************************************
 Gaussian 09:  AM64L-G09RevD.01 24-Apr-2013
                19-Feb-2025 
 ******************************************
 %chk=nacl.chk
 --------------------------------------
 # opt freq hf/sto-3g geom=connectivity
 --------------------------------------
 1/18=20,19=15,38=1,57=2/1,3;
 2/9=110,12=2,17=6,18=5,40=1/2;
 3/6=3,11=9,16=1,25=1,30=1,71=1/1,2,3;
 4//1;
 5/5=2,38=5/2;
 6/7=2,8=2,9=2,10=2,28=1/1;
 7//1,2,3,16;
 1/18=20,19=15/3(2);
 2/9=110/2;
 99//99;
 2/9=110/2;
 3/6=3,11=9,16=1,25=1,30=1,71=1/1,2,3;
 4/5=5,16=3,69=1/1;
 5/5=2,38=5/2;
 7//1,2,3,16;
 1/18=20,19=15/3(-5);
 2/9=110/2;
 6/7=2,8=2,9=2,10=2,19=2,28=1/1;
 99/9=1/99;
 -------------------
 Title Card Required
 -------------------
 Symbolic Z-matrix:
 Charge =  0 Multiplicity = 1
 Na                   -1.53153   1.45646   0. 
 Cl                   -3.92153   1.45646   0. 
 

 GradGradGradGradGradGradGradGradGradGradGradGradGradGradGradGradGradGrad
 Berny optimization.
 Initialization pass.
                           ----------------------------
                           !    Initial Parameters    !
                           ! (Angstroms and Degrees)  !
 --------------------------                            --------------------------
 ! Name  Definition              Value          Derivative Info.                !
 --------------------------------------------------------------------------------
 ! R1    R(1,2)                  2.39           estimate D2E/DX2                !
 --------------------------------------------------------------------------------
 Trust Radius=3.00D-01 FncErr=1.00D-07 GrdErr=1.00D-07
 Number of steps in this run=     20 maximum allowed number of steps=    100.
 GradGradGradGradGradGradGradGradGradGradGradGradGradGradGradGradGradGrad

                          Input orientation:                          
 ---------------------------------------------------------------------
 Center     Atomic      Atomic             Coordinates (Angstroms)
 Number     Number       Type             X           Y           Z
 ---------------------------------------------------------------------
      1         11           0       -1.531532    1.456456    0.000000
      2         17           0       -3.921532    1.456456    0.000000
 ---------------------------------------------------------------------
 Stoichiometry    ClNa
 Framework group  C*V[C*(NaCl)]
 Deg. of freedom     1
 Full point group                 C*V     NOp   4
 Largest Abelian subgroup         C2V     NOp   4
 Largest concise Abelian subgroup C1      NOp   1
                         Standard orientation:                         
 ---------------------------------------------------------------------
 Center     Atomic      Atomic             Coordinates (Angstroms)
 Number     Number       Type             X           Y           Z
 ---------------------------------------------------------------------
      1         11           0        0.000000    0.000000   -1.451071
      2         17           0        0.000000    0.000000    0.938929
 ---------------------------------------------------------------------
 Rotational constants (GHZ):      0.0000000      6.3785717      6.3785717
 Standard basis: STO-3G (5D, 7F)
 There are    10 symmetry adapted cartesian basis functions of A1  symmetry.
 There are     0 symmetry adapted cartesian basis functions of A2  symmetry.
 There are     4 symmetry adapted cartesian basis functions of B1  symmetry.
 There are     4 symmetry adapted cartesian basis functions of B2  symmetry.
 There are    10 symmetry adapted basis functions of A1  symmetry.
 There are     0 symmetry adapted basis functions of A2  symmetry.
 There are     4 symmetry adapted basis functions of B1  symmetry.
 There are     4 symmetry adapted basis functions of B2  symmetry.
    18 basis functions,    54 primitive gaussians,    18 cartesian basis functions
    14 alpha electrons       14 beta electrons
       nuclear repulsion energy        41.4042418437 Hartrees.
 NAtoms=    2 NActive=    2 NUniq=    2 SFac= 1.00D+00 NAtFMM=   60 NAOKFM=F Big=F
 Integral buffers will be    131072 words long.
 Raffenetti 1 integral format.
 Two-electron integral symmetry is turned on.
 One-electron integrals computed using PRISM.
 NBasis=    18 RedAO= T EigKep=  8.21D-01  NBF=    10     0     4     4
 NBsUse=    18 1.00D-06 EigRej= -1.00D+00 NBFU=    10     0     4     4
 ExpMin= 1.61D-01 ExpMax= 6.01D+02 ExpMxC= 6.01D+02 IAcc=1 IRadAn=         1 AccDes= 0.00D+00
 Harris functional with IExCor=  205 and IRadAn=       1 diagonalized for initial guess.
 HarFok:  IExCor=  205 AccDes= 0.00D+00 IRadAn=         1 IDoV= 1 UseB2=F ITyADJ=14
 ICtDFT=  3500011 ScaDFX=  1.000000  1.000000  1.000000  1.000000
 FoFCou: FMM=F IPFlag=           0 FMFlag=      100000 FMFlg1=           0
         NFxFlg=           0 DoJE=T BraDBF=F KetDBF=T FulRan=T
         wScrn=  0.000000 ICntrl=     500 IOpCl=  0 I1Cent=   200000004 NGrid=           0
         NMat0=    1 NMatS0=      1 NMatT0=    0 NMatD0=    1 NMtDS0=    0 NMtDT0=    0
 Petite list used in FoFCou.
 Initial guess orbital symmetries:
       Occupied  (SG) (SG) (SG) (SG) (PI) (PI) (SG) (SG) (PI) (PI)
                 (SG) (SG) (PI) (PI)
       Virtual   (SG) (PI) (PI) (SG)
 The electronic state of the initial guess is 1-SG.
 Keep R1 ints in memory in symmetry-blocked form, NReq=839411.
 Requested convergence on RMS density matrix=1.00D-08 within 128 cycles.
 Requested convergence on MAX density matrix=1.00D-06.
 Requested convergence on             energy=1.00D-06.
 No special actions if energy rises.
 SCF Done:  E(RHF) =  -614.522371820     A.U. after    8 cycles
            NFock=  8  Conv=0.34D-08     -V/T= 2.0178

 **********************************************************************

            Population analysis using the SCF density.

 **********************************************************************

 Orbital symmetries:
       Occupied  (SG) (SG) (SG) (SG) (PI) (PI) (SG) (PI) (PI) (SG)
                 (SG) (SG) (PI) (PI)
       Virtual   (SG) (PI) (PI) (SG)
 The electronic state is 1-SG.
 Alpha  occ. eigenvalues -- -103.32103 -40.29396 -10.03782  -7.47944  -7.47790
 Alpha  occ. eigenvalues --   -7.47790  -2.84389  -1.49855  -1.49855  -1.49742
 Alpha  occ. eigenvalues --   -0.77082  -0.21349  -0.19734  -0.19734
 Alpha virt. eigenvalues --    0.38070   0.66695   0.66695   0.80924
          Condensed to atoms (all electrons):
               1          2
     1  Na  10.096494   0.094574
     2  Cl   0.094574  17.714358
 Mulliken charges:
               1
     1  Na   0.808932
     2  Cl  -0.808932
 Sum of Mulliken charges =   0.00000
 Mulliken charges with hydrogens summed into heavy atoms:
               1
     1  Na   0.808932
     2  Cl  -0.808932
 Electronic spatial extent (au):  <R**2>=            166.7753
 Charge=              0.0000 electrons
 Dipole moment (field-independent basis, Debye):
    X=              0.0000    Y=              0.0000    Z=             -9.9865  Tot=              9.9865
 Quadrupole moment (field-independent basis, Debye-Ang):
   XX=            -15.7896   YY=            -15.7896   ZZ=             -9.5034
   XY=              0.0000   XZ=              0.0000   YZ=              0.0000
 Traceless Quadrupole moment (field-independent basis, Debye-Ang):
   XX=             -2.0954   YY=             -2.0954   ZZ=              4.1908
   XY=              0.0000   XZ=              0.0000   YZ=              0.0000
 Octapole moment (field-independent basis, Debye-Ang**2):
  XXX=              0.0000  YYY=              0.0000  ZZZ=            -37.9080  XYY=              0.0000
  XXY=              0.0000  XXZ=             -6.9769  XZZ=              0.0000  YZZ=              0.0000
  YYZ=             -6.9769  XYZ=              0.0000
 Hexadecapole moment (field-independent basis, Debye-Ang**3):
 XXXX=            -11.8071 YYYY=            -11.8071 ZZZZ=            -97.8490 XXXY=              0.0000
 XXXZ=              0.0000 YYYX=              0.0000 YYYZ=              0.0000 ZZZX=              0.0000
 ZZZY=              0.0000 XXYY=             -3.9357 XXZZ=            -21.4353 YYZZ=            -21.4353
 XXYZ=              0.0000 YYXZ=              0.0000 ZZXY=              0.0000
 N-N= 4.140424184365D+01 E-N=-1.546022234964D+03  KE= 6.037799001491D+02
 Symmetry A1   KE= 4.970421439599D+02
 Symmetry A2   KE= 0.000000000000D+00
 Symmetry B1   KE= 5.336887809463D+01
 Symmetry B2   KE= 5.336887809463D+01
 Calling FoFJK, ICntrl=      2127 FMM=F ISym2X=1 I1Cent= 0 IOpClX= 0 NMat=1 NMatS=1 NMatT=0.
 ***** Axes restored to original set *****
 -------------------------------------------------------------------
 Center     Atomic                   Forces (Hartrees/Bohr)
 Number     Number              X              Y              Z
 -------------------------------------------------------------------
      1       11          -0.034984100    0.000000000    0.000000000
      2       17           0.034984100    0.000000000    0.000000000
 -------------------------------------------------------------------
 Cartesian Forces:  Max     0.034984100 RMS     0.020198079

 GradGradGradGradGradGradGradGradGradGradGradGradGradGradGradGradGradGrad
 Berny optimization.
 FormGI is forming the generalized inverse of G from B-inverse, IUseBI=4.
 Internal  Forces:  Max     0.034984100 RMS     0.034984100
 Search for a local minimum.
 Step number   1 out of a maximum of   20
 All quantities printed in internal units (Hartrees-Bohrs-Radians)
 Mixed Optimization -- RFO/linear search
 Second derivative matrix not updated -- first step.
 The second derivative matrix:
                          R1
           R1           0.11813
 ITU=  0
     Eigenvalues ---    0.11813
 RFO step:  Lambda=-9.58276488D-03 EMin= 1.18134784D-01
 Linear search not attempted -- first point.
 Iteration  1 RMS(Cart)=  0.14142136 RMS(Int)=  0.07391772
 Iteration  2 RMS(Cart)=  0.05226772 RMS(Int)=  0.00000000
 Iteration  3 RMS(Cart)=  0.00000000 RMS(Int)=  0.00000000
 ClnCor:  largest displacement from symmetrization is 0.00D+00 for atom     0.
 Variable       Old X    -DE/DX   Delta X   Delta X   Delta X     New X
                                 (Linear)    (Quad)   (Total)
    R1        4.51645  -0.03498   0.00000  -0.27392  -0.27392   4.24253
         Item               Value     Threshold  Converged?
 Maximum Force            0.034984     0.000450     NO 
 RMS     Force            0.034984     0.000300     NO 
 Maximum Displacement     0.136959     0.001800     NO 
 RMS     Displacement     0.193689     0.001200     NO 
 Predicted change in Energy=-5.150884D-03
 GradGradGradGradGradGradGradGradGradGradGradGradGradGradGradGradGradGrad

                          Input orientation:                          
 ---------------------------------------------------------------------
 Center     Atomic      Atomic             Coordinates (Angstroms)
 Number     Number       Type             X           Y           Z
 ---------------------------------------------------------------------
      1         11           0       -1.604007    1.456456    0.000000
      2         17           0       -3.849056    1.456456    0.000000
 ---------------------------------------------------------------------
 Stoichiometry    ClNa
 Framework group  C*V[C*(NaCl)]
 Deg. of freedom     1
 Full point group                 C*V     NOp   4
 Largest Abelian subgroup         C2V     NOp   4
 Largest concise Abelian subgroup C1      NOp   1
                         Standard orientation:                         
 ---------------------------------------------------------------------
 Center     Atomic      Atomic             Coordinates (Angstroms)
 Number     Number       Type             X           Y           Z
 ---------------------------------------------------------------------
      1         11           0        0.000000    0.000000   -1.363065
      2         17           0        0.000000    0.000000    0.881984
 ---------------------------------------------------------------------
 Rotational constants (GHZ):      0.0000000      7.2288232      7.2288232
 Standard basis: STO-3G (5D, 7F)
 There are    10 symmetry adapted cartesian basis functions of A1  symmetry.
 There are     0 symmetry adapted cartesian basis functions of A2  symmetry.
 There are     4 symmetry adapted cartesian basis functions of B1  symmetry.
 There are     4 symmetry adapted cartesian basis functions of B2  symmetry.
 There are    10 symmetry adapted basis functions of A1  symmetry.
 There are     0 symmetry adapted basis functions of A2  symmetry.
 There are     4 symmetry adapted basis functions of B1  symmetry.
 There are     4 symmetry adapted basis functions of B2  symmetry.
    18 basis functions,    54 primitive gaussians,    18 cartesian basis functions
    14 alpha electrons       14 beta electrons
       nuclear repulsion energy        44.0774961509 Hartrees.



 Warning!  Cl atom    2 may be hypervalent but has no d functions.



 NAtoms=    2 NActive=    2 NUniq=    2 SFac= 1.00D+00 NAtFMM=   60 NAOKFM=F Big=F
 Integral buffers will be    131072 words long.
 Raffenetti 1 integral format.
 Two-electron integral symmetry is turned on.
 One-electron integrals computed using PRISM.
 NBasis=    18 RedAO= T EigKep=  7.47D-01  NBF=    10     0     4     4
 NBsUse=    18 1.00D-06 EigRej= -1.00D+00 NBFU=    10     0     4     4
 Initial guess from the checkpoint file:  "nacl.chk"
 B after Tr=     0.000000    0.000000    0.000000
         Rot=    1.000000    0.000000    0.000000    0.000000 Ang=   0.00 deg.
 Initial guess orbital symmetries:
       Occupied  (SG) (SG) (SG) (SG) (PI) (PI) (SG) (PI) (PI) (SG)
                 (SG) (SG) (PI) (PI)
       Virtual   (SG) (SG) (PI) (PI)
 ExpMin= 1.61D-01 ExpMax= 6.01D+02 ExpMxC= 6.01D+02 IAcc=1 IRadAn=         1 AccDes= 0.00D+00
 Harris functional with IExCor=  205 and IRadAn=       1 diagonalized for initial guess.
 HarFok:  IExCor=  205 AccDes= 0.00D+00 IRadAn=         1 IDoV= 1 UseB2=F ITyADJ=14
 ICtDFT=  3500011 ScaDFX=  1.000000  1.000000  1.000000  1.000000
 FoFCou: FMM=F IPFlag=           0 FMFlag=      100000 FMFlg1=           0
         NFxFlg=           0 DoJE=T BraDBF=F KetDBF=T FulRan=T
         wScrn=  0.000000 ICntrl=     500 IOpCl=  0 I1Cent=   200000004 NGrid=           0
         NMat0=    1 NMatS0=      1 NMatT0=    0 NMatD0=    1 NMtDS0=    0 NMtDT0=    0
 Petite list used in FoFCou.
 Keep R1 ints in memory in symmetry-blocked form, NReq=839460.
 Requested convergence on RMS density matrix=1.00D-08 within 128 cycles.
 Requested convergence on MAX density matrix=1.00D-06.
 Requested convergence on             energy=1.00D-06.
 No special actions if energy rises.
 SCF Done:  E(RHF) =  -614.528429442     A.U. after    8 cycles
            NFock=  8  Conv=0.14D-08     -V/T= 2.0178
 Calling FoFJK, ICntrl=      2127 FMM=F ISym2X=1 I1Cent= 0 IOpClX= 0 NMat=1 NMatS=1 NMatT=0.
 ***** Axes restored to original set *****
 -------------------------------------------------------------------
 Center     Atomic                   Forces (Hartrees/Bohr)
 Number     Number              X              Y              Z
 -------------------------------------------------------------------
      1       11          -0.006523963    0.000000000    0.000000000
      2       17           0.006523963    0.000000000    0.000000000
 -------------------------------------------------------------------
 Cartesian Forces:  Max     0.006523963 RMS     0.003766612

 GradGradGradGradGradGradGradGradGradGradGradGradGradGradGradGradGradGrad
 Berny optimization.
 Using GEDIIS/GDIIS optimizer.
 Internal  Forces:  Max     0.006523963 RMS     0.006523963
 Search for a local minimum.
 Step number   2 out of a maximum of   20
 All quantities printed in internal units (Hartrees-Bohrs-Radians)
 Mixed Optimization -- RFO/linear search
 Update second derivatives using D2CorX and points    1    2
 DE= -6.06D-03 DEPred=-5.15D-03 R= 1.18D+00
 TightC=F SS=  1.41D+00  RLast= 2.74D-01 DXNew= 5.0454D-01 8.2175D-01
 Trust test= 1.18D+00 RLast= 2.74D-01 DXMaxT set to 5.05D-01
 The second derivative matrix:
                          R1
           R1           0.10390
 ITU=  1  0
 Use linear search instead of GDIIS.
     Eigenvalues ---    0.10390
 RFO step:  Lambda= 0.00000000D+00 EMin= 1.03900314D-01
 Quartic linear search produced a step of  0.16893.
 Iteration  1 RMS(Cart)=  0.03272070 RMS(Int)=  0.00000000
 Iteration  2 RMS(Cart)=  0.00000000 RMS(Int)=  0.00000000
 ClnCor:  largest displacement from symmetrization is 0.00D+00 for atom     0.
 Variable       Old X    -DE/DX   Delta X   Delta X   Delta X     New X
                                 (Linear)    (Quad)   (Total)
    R1        4.24253  -0.00652  -0.04627   0.00000  -0.04627   4.19625
         Item               Value     Threshold  Converged?
 Maximum Force            0.006524     0.000450     NO 
 RMS     Force            0.006524     0.000300     NO 
 Maximum Displacement     0.023137     0.001800     NO 
 RMS     Displacement     0.032721     0.001200     NO 
 Predicted change in Energy=-1.906499D-04
 GradGradGradGradGradGradGradGradGradGradGradGradGradGradGradGradGradGrad

                          Input orientation:                          
 ---------------------------------------------------------------------
 Center     Atomic      Atomic             Coordinates (Angstroms)
 Number     Number       Type             X           Y           Z
 ---------------------------------------------------------------------
      1         11           0       -1.616251    1.456456    0.000000
      2         17           0       -3.836812    1.456456    0.000000
 ---------------------------------------------------------------------
 Stoichiometry    ClNa
 Framework group  C*V[C*(NaCl)]
 Deg. of freedom     1
 Full point group                 C*V     NOp   4
 Largest Abelian subgroup         C2V     NOp   4
 Largest concise Abelian subgroup C1      NOp   1
                         Standard orientation:                         
 ---------------------------------------------------------------------
 Center     Atomic      Atomic             Coordinates (Angstroms)
 Number     Number       Type             X           Y           Z
 ---------------------------------------------------------------------
      1         11           0        0.000000    0.000000   -1.348198
      2         17           0        0.000000    0.000000    0.872364
 ---------------------------------------------------------------------
 Rotational constants (GHZ):      0.0000000      7.3891335      7.3891335
 Standard basis: STO-3G (5D, 7F)
 There are    10 symmetry adapted cartesian basis functions of A1  symmetry.
 There are     0 symmetry adapted cartesian basis functions of A2  symmetry.
 There are     4 symmetry adapted cartesian basis functions of B1  symmetry.
 There are     4 symmetry adapted cartesian basis functions of B2  symmetry.
 There are    10 symmetry adapted basis functions of A1  symmetry.
 There are     0 symmetry adapted basis functions of A2  symmetry.
 There are     4 symmetry adapted basis functions of B1  symmetry.
 There are     4 symmetry adapted basis functions of B2  symmetry.
    18 basis functions,    54 primitive gaussians,    18 cartesian basis functions
    14 alpha electrons       14 beta electrons
       nuclear repulsion energy        44.5635593605 Hartrees.



 Warning!  Cl atom    2 may be hypervalent but has no d functions.



 NAtoms=    2 NActive=    2 NUniq=    2 SFac= 1.00D+00 NAtFMM=   60 NAOKFM=F Big=F
 Integral buffers will be    131072 words long.
 Raffenetti 1 integral format.
 Two-electron integral symmetry is turned on.
 One-electron integrals computed using PRISM.
 NBasis=    18 RedAO= T EigKep=  7.33D-01  NBF=    10     0     4     4
 NBsUse=    18 1.00D-06 EigRej= -1.00D+00 NBFU=    10     0     4     4
 Initial guess from the checkpoint file:  "nacl.chk"
 B after Tr=     0.000000    0.000000    0.000000
         Rot=    1.000000    0.000000    0.000000    0.000000 Ang=   0.00 deg.
 Initial guess orbital symmetries:
       Occupied  (SG) (SG) (SG) (SG) (PI) (PI) (SG) (SG) (PI) (PI)
                 (SG) (SG) (PI) (PI)
       Virtual   (SG) (SG) (PI) (PI)
 ExpMin= 1.61D-01 ExpMax= 6.01D+02 ExpMxC= 6.01D+02 IAcc=1 IRadAn=         1 AccDes= 0.00D+00
 Harris functional with IExCor=  205 and IRadAn=       1 diagonalized for initial guess.
 HarFok:  IExCor=  205 AccDes= 0.00D+00 IRadAn=         1 IDoV= 1 UseB2=F ITyADJ=14
 ICtDFT=  3500011 ScaDFX=  1.000000  1.000000  1.000000  1.000000
 FoFCou: FMM=F IPFlag=           0 FMFlag=      100000 FMFlg1=           0
         NFxFlg=           0 DoJE=T BraDBF=F KetDBF=T FulRan=T
         wScrn=  0.000000 ICntrl=     500 IOpCl=  0 I1Cent=   200000004 NGrid=           0
         NMat0=    1 NMatS0=      1 NMatT0=    0 NMatD0=    1 NMtDS0=    0 NMtDT0=    0
 Petite list used in FoFCou.
 Keep R1 ints in memory in symmetry-blocked form, NReq=839460.
 Requested convergence on RMS density matrix=1.00D-08 within 128 cycles.
 Requested convergence on MAX density matrix=1.00D-06.
 Requested convergence on             energy=1.00D-06.
 No special actions if energy rises.
 SCF Done:  E(RHF) =  -614.528581222     A.U. after    7 cycles
            NFock=  7  Conv=0.38D-08     -V/T= 2.0178
 Calling FoFJK, ICntrl=      2127 FMM=F ISym2X=1 I1Cent= 0 IOpClX= 0 NMat=1 NMatS=1 NMatT=0.
 ***** Axes restored to original set *****
 -------------------------------------------------------------------
 Center     Atomic                   Forces (Hartrees/Bohr)
 Number     Number              X              Y              Z
 -------------------------------------------------------------------
      1       11           0.000063931    0.000000000    0.000000000
      2       17          -0.000063931    0.000000000    0.000000000
 -------------------------------------------------------------------
 Cartesian Forces:  Max     0.000063931 RMS     0.000036910

 GradGradGradGradGradGradGradGradGradGradGradGradGradGradGradGradGradGrad
 Berny optimization.
 Using GEDIIS/GDIIS optimizer.
 Internal  Forces:  Max     0.000063931 RMS     0.000063931
 Search for a local minimum.
 Step number   3 out of a maximum of   20
 All quantities printed in internal units (Hartrees-Bohrs-Radians)
 Mixed Optimization -- En-DIIS/RFO-DIIS
 Update second derivatives using D2CorX and points    2    3
 DE= -1.52D-04 DEPred=-1.91D-04 R= 7.96D-01
 TightC=F SS=  1.41D+00  RLast= 4.63D-02 DXNew= 8.4853D-01 1.3882D-01
 Trust test= 7.96D-01 RLast= 4.63D-02 DXMaxT set to 5.05D-01
 The second derivative matrix:
                          R1
           R1           0.14237
 ITU=  1  1
 Use linear search instead of GDIIS.
     Eigenvalues ---    0.14237
 RFO step:  Lambda= 0.00000000D+00 EMin= 1.42366889D-01
 Quartic linear search produced a step of -0.00928.
 Iteration  1 RMS(Cart)=  0.00030373 RMS(Int)=  0.00000000
 Iteration  2 RMS(Cart)=  0.00000000 RMS(Int)=  0.00000000
 ClnCor:  largest displacement from symmetrization is 0.00D+00 for atom     0.
 Variable       Old X    -DE/DX   Delta X   Delta X   Delta X     New X
                                 (Linear)    (Quad)   (Total)
    R1        4.19625   0.00006   0.00043   0.00000   0.00043   4.19668
         Item               Value     Threshold  Converged?
 Maximum Force            0.000064     0.000450     YES
 RMS     Force            0.000064     0.000300     YES
 Maximum Displacement     0.000215     0.001800     YES
 RMS     Displacement     0.000304     0.001200     YES
 Predicted change in Energy=-1.432716D-08
 Optimization completed.
    -- Stationary point found.
                           ----------------------------
                           !   Optimized Parameters   !
                           ! (Angstroms and Degrees)  !
 --------------------------                            --------------------------
 ! Name  Definition              Value          Derivative Info.                !
 --------------------------------------------------------------------------------
 ! R1    R(1,2)                  2.2206         -DE/DX =    0.0001              !
 --------------------------------------------------------------------------------
 GradGradGradGradGradGradGradGradGradGradGradGradGradGradGradGradGradGrad

                          Input orientation:                          
 ---------------------------------------------------------------------
 Center     Atomic      Atomic             Coordinates (Angstroms)
 Number     Number       Type             X           Y           Z
 ---------------------------------------------------------------------
      1         11           0       -1.616251    1.456456    0.000000
      2         17           0       -3.836812    1.456456    0.000000
 ---------------------------------------------------------------------
 Stoichiometry    ClNa
 Framework group  C*V[C*(NaCl)]
 Deg. of freedom     1
 Full point group                 C*V     NOp   4
 Largest Abelian subgroup         C2V     NOp   4
 Largest concise Abelian subgroup C1      NOp   1
                         Standard orientation:                         
 ---------------------------------------------------------------------
 Center     Atomic      Atomic             Coordinates (Angstroms)
 Number     Number       Type             X           Y           Z
 ---------------------------------------------------------------------
      1         11           0        0.000000    0.000000   -1.348198
      2         17           0        0.000000    0.000000    0.872364
 ---------------------------------------------------------------------
 Rotational constants (GHZ):      0.0000000      7.3891335      7.3891335

 **********************************************************************

            Population analysis using the SCF density.

 **********************************************************************

 Orbital symmetries:
       Occupied  (SG) (SG) (SG) (SG) (PI) (PI) (SG) (SG) (PI) (PI)
                 (SG) (SG) (PI) (PI)
       Virtual   (SG) (PI) (PI) (SG)
 The electronic state is 1-SG.
 Alpha  occ. eigenvalues -- -103.34450 -40.27229 -10.05922  -7.50092  -7.49917
 Alpha  occ. eigenvalues --   -7.49917  -2.82584  -1.48059  -1.47988  -1.47988
 Alpha  occ. eigenvalues --   -0.78733  -0.22932  -0.21367  -0.21367
 Alpha virt. eigenvalues --    0.40049   0.68302   0.68302   0.87520
          Condensed to atoms (all electrons):
               1          2
     1  Na  10.110800   0.101474
     2  Cl   0.101474  17.686251
 Mulliken charges:
               1
     1  Na   0.787726
     2  Cl  -0.787726
 Sum of Mulliken charges =   0.00000
 Mulliken charges with hydrogens summed into heavy atoms:
               1
     1  Na   0.787726
     2  Cl  -0.787726
 Electronic spatial extent (au):  <R**2>=            148.8164
 Charge=              0.0000 electrons
 Dipole moment (field-independent basis, Debye):
    X=              0.0000    Y=              0.0000    Z=             -9.1401  Tot=              9.1401
 Quadrupole moment (field-independent basis, Debye-Ang):
   XX=            -15.8173   YY=            -15.8173   ZZ=            -10.3525
   XY=              0.0000   XZ=              0.0000   YZ=              0.0000
 Traceless Quadrupole moment (field-independent basis, Debye-Ang):
   XX=             -1.8216   YY=             -1.8216   ZZ=              3.6432
   XY=              0.0000   XZ=              0.0000   YZ=              0.0000
 Octapole moment (field-independent basis, Debye-Ang**2):
  XXX=              0.0000  YYY=              0.0000  ZZZ=            -32.6587  XYY=              0.0000
  XXY=              0.0000  XXZ=             -6.4271  XZZ=              0.0000  YZZ=              0.0000
  YYZ=             -6.4271  XYZ=              0.0000
 Hexadecapole moment (field-independent basis, Debye-Ang**3):
 XXXX=            -11.8572 YYYY=            -11.8572 ZZZZ=            -88.3178 XXXY=              0.0000
 XXXZ=              0.0000 YYYX=              0.0000 YYYZ=              0.0000 ZZZX=              0.0000
 ZZZY=              0.0000 XXYY=             -3.9524 XXZZ=            -19.0655 YYZZ=            -19.0655
 XXYZ=              0.0000 YYXZ=              0.0000 ZZXY=              0.0000
 N-N= 4.456355936046D+01 E-N=-1.552188059134D+03  KE= 6.037746762621D+02
 Symmetry A1   KE= 4.970794874966D+02
 Symmetry A2   KE= 0.000000000000D+00
 Symmetry B1   KE= 5.334759438273D+01
 Symmetry B2   KE= 5.334759438273D+01
 1\1\GINC-MAYANK-HP\FOpt\RHF\STO-3G\Cl1Na1\MAYANK\19-Feb-2025\0\\# opt 
 freq hf/sto-3g geom=connectivity\\Title Card Required\\0,1\Na,-1.61625
 06353,1.45645643,0.\Cl,-3.8368124447,1.45645643,0.\\Version=AM64L-G09R
 evD.01\State=1-SG\HF=-614.5285812\RMSD=3.759e-09\RMSF=3.691e-05\Dipole
 =3.5959785,0.,0.\Quadrupole=2.7086385,-1.3543192,-1.3543192,0.,0.,0.\P
 G=C*V [C*(Na1Cl1)]\\@


 HE THAT IS UNAWARE OF HIS IGNORANCE WILL BE MISLED BY HIS KNOWLEDGE.

                                        -- WHATLEY
 Job cpu time:       0 days  0 hours  0 minutes  1.5 seconds.
 File lengths (MBytes):  RWF=      5 Int=      0 D2E=      0 Chk=      1 Scr=      1
 Normal termination of Gaussian 09 at Wed Feb 19 03:48:15 2025.
 Link1:  Proceeding to internal job step number  2.
 ---------------------------------------------------------------
 #N Geom=AllCheck Guess=TCheck SCRF=Check GenChk RHF/STO-3G Freq
 ---------------------------------------------------------------
 1/10=4,29=7,30=1,38=1,40=1/1,3;
 2/12=2,40=1/2;
 3/6=3,11=1,14=-4,16=1,25=1,30=1,70=2,71=2,116=1,140=1/1,2,3;
 4/5=101/1;
 5/5=2,98=1/2;
 8/6=4,10=90,11=11/1;
 10/13=10,15=4/2;
 11/6=3,8=1,9=11,15=111,16=1/1,2,10;
 10/6=1/2;
 6/7=2,8=2,9=2,10=2,18=1,28=1/1;
 7/8=1,10=1,25=1/1,2,3,16;
 1/10=4,30=1/3;
 99//99;
 Structure from the checkpoint file:  "nacl.chk"
 -------------------
 Title Card Required
 -------------------
 Charge =  0 Multiplicity = 1
 Redundant internal coordinates found in file.
 Na,0,-1.6162506353,1.45645643,0.
 Cl,0,-3.8368124447,1.45645643,0.
 Recover connectivity data from disk.

 GradGradGradGradGradGradGradGradGradGradGradGradGradGradGradGradGradGrad
 Berny optimization.
 Initialization pass.
                           ----------------------------
                           !    Initial Parameters    !
                           ! (Angstroms and Degrees)  !
 --------------------------                            --------------------------
 ! Name  Definition              Value          Derivative Info.                !
 --------------------------------------------------------------------------------
 ! R1    R(1,2)                  2.2206         calculate D2E/DX2 analytically  !
 --------------------------------------------------------------------------------
 Trust Radius=3.00D-01 FncErr=1.00D-07 GrdErr=1.00D-07
 Number of steps in this run=      2 maximum allowed number of steps=      2.
 GradGradGradGradGradGradGradGradGradGradGradGradGradGradGradGradGradGrad

                          Input orientation:                          
 ---------------------------------------------------------------------
 Center     Atomic      Atomic             Coordinates (Angstroms)
 Number     Number       Type             X           Y           Z
 ---------------------------------------------------------------------
      1         11           0       -1.616251    1.456456    0.000000
      2         17           0       -3.836812    1.456456    0.000000
 ---------------------------------------------------------------------
 Stoichiometry    ClNa
 Framework group  C*V[C*(NaCl)]
 Deg. of freedom     1
 Full point group                 C*V     NOp   4
 Largest Abelian subgroup         C2V     NOp   4
 Largest concise Abelian subgroup C1      NOp   1
                         Standard orientation:                         
 ---------------------------------------------------------------------
 Center     Atomic      Atomic             Coordinates (Angstroms)
 Number     Number       Type             X           Y           Z
 ---------------------------------------------------------------------
      1         11           0        0.000000    0.000000   -1.348198
      2         17           0        0.000000    0.000000    0.872364
 ---------------------------------------------------------------------
 Rotational constants (GHZ):      0.0000000      7.3891335      7.3891335
 Standard basis: STO-3G (5D, 7F)
 There are    10 symmetry adapted cartesian basis functions of A1  symmetry.
 There are     0 symmetry adapted cartesian basis functions of A2  symmetry.
 There are     4 symmetry adapted cartesian basis functions of B1  symmetry.
 There are     4 symmetry adapted cartesian basis functions of B2  symmetry.
 There are    10 symmetry adapted basis functions of A1  symmetry.
 There are     0 symmetry adapted basis functions of A2  symmetry.
 There are     4 symmetry adapted basis functions of B1  symmetry.
 There are     4 symmetry adapted basis functions of B2  symmetry.
    18 basis functions,    54 primitive gaussians,    18 cartesian basis functions
    14 alpha electrons       14 beta electrons
       nuclear repulsion energy        44.5635593605 Hartrees.



 Warning!  Cl atom    2 may be hypervalent but has no d functions.



 NAtoms=    2 NActive=    2 NUniq=    2 SFac= 1.00D+00 NAtFMM=   60 NAOKFM=F Big=F
 Integral buffers will be    131072 words long.
 Raffenetti 1 integral format.
 Two-electron integral symmetry is turned on.
 One-electron integrals computed using PRISM.
 NBasis=    18 RedAO= T EigKep=  7.33D-01  NBF=    10     0     4     4
 NBsUse=    18 1.00D-06 EigRej= -1.00D+00 NBFU=    10     0     4     4
 Initial guess from the checkpoint file:  "nacl.chk"
 B after Tr=     0.000000    0.000000    0.000000
         Rot=    1.000000    0.000000    0.000000    0.000000 Ang=   0.00 deg.
 Initial guess orbital symmetries:
       Occupied  (SG) (SG) (SG) (SG) (PI) (PI) (SG) (SG) (PI) (PI)
                 (SG) (SG) (PI) (PI)
       Virtual   (SG) (PI) (PI) (SG)
 Keep R1 ints in memory in symmetry-blocked form, NReq=839460.
 Requested convergence on RMS density matrix=1.00D-08 within 128 cycles.
 Requested convergence on MAX density matrix=1.00D-06.
 Requested convergence on             energy=1.00D-06.
 No special actions if energy rises.
 SCF Done:  E(RHF) =  -614.528581222     A.U. after    1 cycles
            NFock=  1  Conv=0.34D-09     -V/T= 2.0178
 Range of M.O.s used for correlation:     1    18
 NBasis=    18 NAE=    14 NBE=    14 NFC=     0 NFV=     0
 NROrb=     18 NOA=    14 NOB=    14 NVA=     4 NVB=     4
          Differentiating once with respect to electric field.
                with respect to dipole field.
          Electric field/nuclear overlap derivatives assumed to be zero.
 Keep R1 ints in memory in symmetry-blocked form, NReq=821333.
          There are     3 degrees of freedom in the 1st order CPHF.  IDoFFX=0 NUNeed=     3.
      3 vectors produced by pass  0 Test12= 1.87D-15 3.33D-08 XBig12= 1.82D+00 1.04D+00.
 AX will form     3 AO Fock derivatives at one time.
      3 vectors produced by pass  1 Test12= 1.87D-15 3.33D-08 XBig12= 1.45D-02 5.79D-02.
      3 vectors produced by pass  2 Test12= 1.87D-15 3.33D-08 XBig12= 5.41D-04 1.18D-02.
      3 vectors produced by pass  3 Test12= 1.87D-15 3.33D-08 XBig12= 1.32D-06 7.90D-04.
      3 vectors produced by pass  4 Test12= 1.87D-15 3.33D-08 XBig12= 1.38D-09 1.57D-05.
      3 vectors produced by pass  5 Test12= 1.87D-15 3.33D-08 XBig12= 7.51D-12 1.40D-06.
      1 vectors produced by pass  6 Test12= 1.87D-15 3.33D-08 XBig12= 1.04D-14 6.85D-08.
 InvSVY:  IOpt=1 It=  1 EMax= 5.55D-17
 Solved reduced A of dimension    19 with     3 vectors.
 End of Minotr F.D. properties file   721 does not exist.
 End of Minotr F.D. properties file   722 does not exist.
 End of Minotr F.D. properties file   788 does not exist.
 Symmetrizing basis deriv contribution to polar:
 IMax=3 JMax=2 DiffMx= 0.00D+00
 G2DrvN: will do     3 centers at a time, making    1 passes.
 PxScal for G2LodP:  IOpCl= 0 ISclPx=1 IMOff=     1 NMtTot=     4 NTT=     171 ScalPx= 1.65D+00
 Calling FoFCou, ICntrl=  3107 FMM=F I1Cent=   0 AccDes= 0.00D+00.
 End of G2Drv F.D. properties file   721 does not exist.
 End of G2Drv F.D. properties file   722 does not exist.
 End of G2Drv F.D. properties file   788 does not exist.
          IDoAtm=11
          Differentiating once with respect to electric field.
                with respect to dipole field.
          Differentiating once with respect to nuclear coordinates.
 Keep R1 ints in memory in symmetry-blocked form, NReq=821379.
          There are     9 degrees of freedom in the 1st order CPHF.  IDoFFX=5 NUNeed=     9.
 Will reuse    3 saved solutions.
      3 vectors produced by pass  0 Test12= 6.22D-16 1.11D-08 XBig12= 1.81D-03 2.82D-02.
 AX will form     3 AO Fock derivatives at one time.
      3 vectors produced by pass  1 Test12= 6.22D-16 1.11D-08 XBig12= 2.88D-05 2.83D-03.
      3 vectors produced by pass  2 Test12= 6.22D-16 1.11D-08 XBig12= 6.59D-07 5.18D-04.
      3 vectors produced by pass  3 Test12= 6.22D-16 1.11D-08 XBig12= 6.16D-09 4.95D-05.
      3 vectors produced by pass  4 Test12= 6.22D-16 1.11D-08 XBig12= 4.88D-11 3.40D-06.
      3 vectors produced by pass  5 Test12= 6.22D-16 1.11D-08 XBig12= 1.08D-13 2.18D-07.
 InvSVY:  IOpt=1 It=  1 EMax= 2.22D-16
 Solved reduced A of dimension    18 with     3 vectors.
 Isotropic polarizability for W=    0.000000        3.01 Bohr**3.
 End of Minotr F.D. properties file   721 does not exist.
 End of Minotr F.D. properties file   722 does not exist.
 End of Minotr F.D. properties file   788 does not exist.

 **********************************************************************

            Population analysis using the SCF density.

 **********************************************************************

 Orbital symmetries:
       Occupied  (SG) (SG) (SG) (SG) (PI) (PI) (SG) (SG) (PI) (PI)
                 (SG) (SG) (PI) (PI)
       Virtual   (SG) (PI) (PI) (SG)
 The electronic state is 1-SG.
 Alpha  occ. eigenvalues -- -103.34450 -40.27229 -10.05922  -7.50092  -7.49917
 Alpha  occ. eigenvalues --   -7.49917  -2.82584  -1.48059  -1.47988  -1.47988
 Alpha  occ. eigenvalues --   -0.78733  -0.22932  -0.21367  -0.21367
 Alpha virt. eigenvalues --    0.40049   0.68302   0.68302   0.87520
          Condensed to atoms (all electrons):
               1          2
     1  Na  10.110800   0.101474
     2  Cl   0.101474  17.686251
 Mulliken charges:
               1
     1  Na   0.787726
     2  Cl  -0.787726
 Sum of Mulliken charges =   0.00000
 Mulliken charges with hydrogens summed into heavy atoms:
               1
     1  Na   0.787726
     2  Cl  -0.787726
 APT charges:
               1
     1  Na   0.903577
     2  Cl  -0.903577
 Sum of APT charges =   0.00000
 APT charges with hydrogens summed into heavy atoms:
               1
     1  Na   0.903577
     2  Cl  -0.903577
 Electronic spatial extent (au):  <R**2>=            148.8164
 Charge=              0.0000 electrons
 Dipole moment (field-independent basis, Debye):
    X=              0.0000    Y=              0.0000    Z=             -9.1401  Tot=              9.1401
 Quadrupole moment (field-independent basis, Debye-Ang):
   XX=            -15.8173   YY=            -15.8173   ZZ=            -10.3525
   XY=              0.0000   XZ=              0.0000   YZ=              0.0000
 Traceless Quadrupole moment (field-independent basis, Debye-Ang):
   XX=             -1.8216   YY=             -1.8216   ZZ=              3.6432
   XY=              0.0000   XZ=              0.0000   YZ=              0.0000
 Octapole moment (field-independent basis, Debye-Ang**2):
  XXX=              0.0000  YYY=              0.0000  ZZZ=            -32.6587  XYY=              0.0000
  XXY=              0.0000  XXZ=             -6.4271  XZZ=              0.0000  YZZ=              0.0000
  YYZ=             -6.4271  XYZ=              0.0000
 Hexadecapole moment (field-independent basis, Debye-Ang**3):
 XXXX=            -11.8572 YYYY=            -11.8572 ZZZZ=            -88.3178 XXXY=              0.0000
 XXXZ=              0.0000 YYYX=              0.0000 YYYZ=              0.0000 ZZZX=              0.0000
 ZZZY=              0.0000 XXYY=             -3.9524 XXZZ=            -19.0655 YYZZ=            -19.0655
 XXYZ=              0.0000 YYXZ=              0.0000 ZZXY=              0.0000
 N-N= 4.456355936046D+01 E-N=-1.552188059152D+03  KE= 6.037746762684D+02
 Symmetry A1   KE= 4.970794875058D+02
 Symmetry A2   KE= 0.000000000000D+00
 Symmetry B1   KE= 5.334759438127D+01
 Symmetry B2   KE= 5.334759438127D+01
  Exact polarizability:   0.872   0.000   0.872   0.000   0.000   7.278
 Approx polarizability:   0.662   0.000   0.662   0.000   0.000   5.789
 Calling FoFJK, ICntrl=    100127 FMM=F ISym2X=1 I1Cent= 0 IOpClX= 0 NMat=1 NMatS=1 NMatT=0.
 Full mass-weighted force constant matrix:
 Low frequencies ---   -5.3874   -5.3874   -0.0043    0.0033    0.0033  532.6597
 Diagonal vibrational polarizability:
        0.0000000       0.0000000       6.6241356
 Diagonal vibrational hyperpolarizability:
        0.0000000       0.0000000      -9.5006076
 Harmonic frequencies (cm**-1), IR intensities (KM/Mole), Raman scattering
 activities (A**4/AMU), depolarization ratios for plane and unpolarized
 incident light, reduced masses (AMU), force constants (mDyne/A),
 and normal coordinates:
                      1
                     SG
 Frequencies --    532.6597
 Red. masses --     26.6049
 Frc consts  --      4.4474
 IR Inten    --     69.8386
 Raman Activ --      0.1372
 Depolar (P) --      0.5692
 Depolar (U) --      0.7255
  Atom  AN      X      Y      Z
     1  11     0.00   0.00   0.84
     2  17     0.00   0.00  -0.55

 -------------------
 - Thermochemistry -
 -------------------
 Temperature   298.150 Kelvin.  Pressure   1.00000 Atm.
 Atom     1 has atomic number 11 and mass  22.98977
 Atom     2 has atomic number 17 and mass  34.96885
 Molecular mass:    57.95862 amu.
 Principal axes and moments of inertia in atomic units:
                           1         2         3
     Eigenvalues --     0.00000 244.24260 244.24260
           X            0.00000   0.00000   1.00000
           Y            0.00000   1.00000   0.00000
           Z            1.00000   0.00000   0.00000
 This molecule is a prolate symmetric top.
 Rotational symmetry number  1.
 Rotational temperature (Kelvin)      0.35462
 Rotational constant (GHZ):           7.389134
 Zero-point vibrational energy       3186.0 (Joules/Mol)
                                    0.76148 (Kcal/Mol)
 Warning -- explicit consideration of   1 degrees of freedom as
           vibrations may cause significant error
 Vibrational temperatures:    766.38
          (Kelvin)
 
 Zero-point correction=                           0.001213 (Hartree/Particle)
 Thermal correction to Energy=                    0.003775
 Thermal correction to Enthalpy=                  0.004719
 Thermal correction to Gibbs Free Energy=        -0.020958
 Sum of electronic and zero-point Energies=           -614.527368
 Sum of electronic and thermal Energies=              -614.524806
 Sum of electronic and thermal Enthalpies=            -614.523862
 Sum of electronic and thermal Free Energies=         -614.549540
 
                     E (Thermal)             CV                S
                      KCal/Mol        Cal/Mol-Kelvin    Cal/Mol-Kelvin
 Total                    2.369              6.146             54.043
 Electronic               0.000              0.000              0.000
 Translational            0.889              2.981             38.092
 Rotational               0.592              1.987             15.370
 Vibrational              0.888              1.178              0.581
 Vibration     1          0.888              1.178              0.581
                       Q            Log10(Q)             Ln(Q)
 Total Bot       0.436718D+10          9.640201         22.197382
 Total V=0       0.157894D+11         10.198365         23.482604
 Vib (Bot)       0.299502D+00         -0.523601         -1.205635
 Vib (Bot)    1  0.299502D+00         -0.523601         -1.205635
 Vib (V=0)       0.108284D+01          0.034564          0.079586
 Vib (V=0)    1  0.108284D+01          0.034564          0.079586
 Electronic      0.100000D+01          0.000000          0.000000
 Translational   0.173433D+08          7.239132         16.668718
 Rotational      0.840754D+03          2.924669          6.734299
 ***** Axes restored to original set *****
 -------------------------------------------------------------------
 Center     Atomic                   Forces (Hartrees/Bohr)
 Number     Number              X              Y              Z
 -------------------------------------------------------------------
      1       11           0.000063931    0.000000000    0.000000000
      2       17          -0.000063931    0.000000000    0.000000000
 -------------------------------------------------------------------
 Cartesian Forces:  Max     0.000063931 RMS     0.000036910
 FormGI is forming the generalized inverse of G from B-inverse, IUseBI=4.

 GradGradGradGradGradGradGradGradGradGradGradGradGradGradGradGradGradGrad
 Berny optimization.
 Internal  Forces:  Max     0.000063931 RMS     0.000063931
 Search for a local minimum.
 Step number   1 out of a maximum of    2
 All quantities printed in internal units (Hartrees-Bohrs-Radians)
 Second derivative matrix not updated -- analytic derivatives used.
 The second derivative matrix:
                          R1
           R1           0.14893
 ITU=  0
     Eigenvalues ---    0.14893
 Angle between quadratic step and forces=   0.00 degrees.
 Linear search not attempted -- first point.
 Iteration  1 RMS(Cart)=  0.00030353 RMS(Int)=  0.00000000
 Iteration  2 RMS(Cart)=  0.00000000 RMS(Int)=  0.00000000
 ClnCor:  largest displacement from symmetrization is 0.00D+00 for atom     0.
 Variable       Old X    -DE/DX   Delta X   Delta X   Delta X     New X
                                 (Linear)    (Quad)   (Total)
    R1        4.19625   0.00006   0.00000   0.00043   0.00043   4.19668
         Item               Value     Threshold  Converged?
 Maximum Force            0.000064     0.000450     YES
 RMS     Force            0.000064     0.000300     YES
 Maximum Displacement     0.000215     0.001800     YES
 RMS     Displacement     0.000304     0.001200     YES
 Predicted change in Energy=-1.372142D-08
 Optimization completed.
    -- Stationary point found.
                           ----------------------------
                           !   Optimized Parameters   !
                           ! (Angstroms and Degrees)  !
 --------------------------                            --------------------------
 ! Name  Definition              Value          Derivative Info.                !
 --------------------------------------------------------------------------------
 ! R1    R(1,2)                  2.2206         -DE/DX =    0.0001              !
 --------------------------------------------------------------------------------
 GradGradGradGradGradGradGradGradGradGradGradGradGradGradGradGradGradGrad

 1\1\GINC-MAYANK-HP\Freq\RHF\STO-3G\Cl1Na1\MAYANK\19-Feb-2025\0\\#N Geo
 m=AllCheck Guess=TCheck SCRF=Check GenChk RHF/STO-3G Freq\\Title Card 
 Required\\0,1\Na,-1.6162506353,1.45645643,0.\Cl,-3.8368124447,1.456456
 43,0.\\Version=AM64L-G09RevD.01\State=1-SG\HF=-614.5285812\RMSD=3.410e
 -10\RMSF=3.691e-05\ZeroPoint=0.0012135\Thermal=0.003775\Dipole=3.59597
 85,0.,0.\DipoleDeriv=0.9968303,0.,0.,0.,0.8569497,0.,0.,0.,0.8569497,-
 0.9968303,0.,0.,0.,-0.8569497,0.,0.,0.,-0.8569497\Polar=7.2779372,0.,0
 .8720653,0.,0.,0.8720653\PolarDeriv=1.429695,0.,-0.2831634,0.,0.,-0.28
 31634,0.,1.5265693,0.,0.,0.,0.,0.,0.,0.,1.5265693,0.,0.,-1.429695,0.,0
 .2831634,0.,0.,0.2831634,0.,-1.5265693,0.,0.,0.,0.,0.,0.,0.,-1.5265693
 ,0.,0.\HyperPolar=105.7066665,0.,10.0860608,0.,0.,0.,0.,10.0860608,0.,
 0.\PG=C*V [C*(Na1Cl1)]\NImag=0\\0.14893237,0.,-0.00001524,0.,0.,-0.000
 01524,-0.14893237,0.,0.,0.14893237,0.,0.00001524,0.,0.,-0.00001524,0.,
 0.,0.00001524,0.,0.,-0.00001524\\-0.00006393,0.,0.,0.00006393,0.,0.\\\
 @


 IF I AM NOT FOR MYSELF, WHO WILL BE?
 BUT IF I AM ONLY FOR MYSELF, WHAT AM I?
 THOUGH A SEEKER SINCE MY BIRTH,
 HERE IS ALL I'VE LEARNED ON EARTH,
 THIS IS THE GIST OF WHAT I KNOW:
 GIVE ADVICE AND BUY A FOE.

 PRESSED FOR RULES AND VERITIES,
 ALL I RECOLLECT ARE THESE:
 FEED A COLD TO STARVE A FEVER,
 ARGUE WITH NO TRUE-BELIEVER.
 THINK-TOO-LONG IS NEVER-ACT,
 SCRATCH A MYTH AND FIND A FACT.

 STITCH IN TIME SAVES TWENTY STITCHES,
 GIVE THE RICH TO PLEASE THEM, RICHES.
 GIVE TO LOVE YOU HEARTH AND HALL,
 BUT DO NOT GIVE ADVICE AT ALL.

                                  -- HILLEL
 Job cpu time:       0 days  0 hours  0 minutes  0.9 seconds.
 File lengths (MBytes):  RWF=      5 Int=      0 D2E=      0 Chk=      1 Scr=      1
 Normal termination of Gaussian 09 at Wed Feb 19 03:48:16 2025.
