 Entering Gaussian System, Link 0=g09
 Input=/home/mayank/Desktop/software/gaussian/Gview_and_Gaussian/g09/scratch/Q1/3/naoh.com
 Output=/home/mayank/Desktop/software/gaussian/Gview_and_Gaussian/g09/scratch/Q1/3/naoh.log
 Initial command:
 /home/mayank/Desktop/software/gaussian/Gview_and_Gaussian/g09/l1.exe "/home/mayank/Desktop/software/gaussian/Gview_and_Gaussian/g09/scratch/Gau-74706.inp" -scrdir="/home/mayank/Desktop/software/gaussian/Gview_and_Gaussian/g09/scratch/"
 Entering Link 1 = /home/mayank/Desktop/software/gaussian/Gview_and_Gaussian/g09/l1.exe PID=     74709.
  
 Copyright (c) 1988,1990,1992,1993,1995,1998,2003,2009,2013,
            Gaussian, Inc.  All Rights Reserved.
  
 This is part of the Gaussian(R) 09 program.  It is based on
 the Gaussian(R) 03 system (copyright 2003, Gaussian, Inc.),
 the Gaussian(R) 98 system (copyright 1998, Gaussian, Inc.),
 the Gaussian(R) 94 system (copyright 1995, Gaussian, Inc.),
 the Gaussian 92(TM) system (copyright 1992, Gaussian, Inc.),
 the Gaussian 90(TM) system (copyright 1990, Gaussian, Inc.),
 the Gaussian 88(TM) system (copyright 1988, Gaussian, Inc.),
 the Gaussian 86(TM) system (copyright 1986, Carnegie Mellon
 University), and the Gaussian 82(TM) system (copyright 1983,
 Carnegie Mellon University). Gaussian is a federally registered
 trademark of Gaussian, Inc.
  
 This software contains proprietary and confidential information,
 including trade secrets, belonging to Gaussian, Inc.
  
 This software is provided under written license and may be
 used, copied, transmitted, or stored only in accord with that
 written license.
  
 The following legend is applicable only to US Government
 contracts under FAR:
  
                    RESTRICTED RIGHTS LEGEND
  
 Use, reproduction and disclosure by the US Government is
 subject to restrictions as set forth in subparagraphs (a)
 and (c) of the Commercial Computer Software - Restricted
 Rights clause in FAR 52.227-19.
  
 Gaussian, Inc.
 340 Quinnipiac St., Bldg. 40, Wallingford CT 06492
  
  
 ---------------------------------------------------------------
 Warning -- This program may not be used in any manner that
 competes with the business of Gaussian, Inc. or will provide
 assistance to any competitor of Gaussian, Inc.  The licensee
 of this program is prohibited from giving any competitor of
 Gaussian, Inc. access to this program.  By using this program,
 the user acknowledges that Gaussian, Inc. is engaged in the
 business of creating and licensing software in the field of
 computational chemistry and represents and warrants to the
 licensee that it is not a competitor of Gaussian, Inc. and that
 it will not use this program in any manner prohibited above.
 ---------------------------------------------------------------
  

 Cite this work as:
 Gaussian 09, Revision D.01,
 M. J. Frisch, G. W. Trucks, H. B. Schlegel, G. E. Scuseria, 
 M. A. Robb, J. R. Cheeseman, G. Scalmani, V. Barone, B. Mennucci, 
 G. A. Petersson, H. Nakatsuji, M. Caricato, X. Li, H. P. Hratchian, 
 A. F. Izmaylov, J. Bloino, G. Zheng, J. L. Sonnenberg, M. Hada, 
 M. Ehara, K. Toyota, R. Fukuda, J. Hasegawa, M. Ishida, T. Nakajima, 
 Y. Honda, O. Kitao, H. Nakai, T. Vreven, J. A. Montgomery, Jr., 
 J. E. Peralta, F. Ogliaro, M. Bearpark, J. J. Heyd, E. Brothers, 
 K. N. Kudin, V. N. Staroverov, T. Keith, R. Kobayashi, J. Normand, 
 K. Raghavachari, A. Rendell, J. C. Burant, S. S. Iyengar, J. Tomasi, 
 M. Cossi, N. Rega, J. M. Millam, M. Klene, J. E. Knox, J. B. Cross, 
 V. Bakken, C. Adamo, J. Jaramillo, R. Gomperts, R. E. Stratmann, 
 O. Yazyev, A. J. Austin, R. Cammi, C. Pomelli, J. W. Ochterski, 
 R. L. Martin, K. Morokuma, V. G. Zakrzewski, G. A. Voth, 
 P. Salvador, J. J. Dannenberg, S. Dapprich, A. D. Daniels, 
 O. Farkas, J. B. Foresman, J. V. Ortiz, J. Cioslowski, 
 and D. J. Fox, Gaussian, Inc., Wallingford CT, 2013.
 
 ******************************************
 Gaussian 09:  AM64L-G09RevD.01 24-Apr-2013
                19-Feb-2025 
 ******************************************
 %chk=naoh.chk
 --------------------------------------
 # opt freq hf/sto-3g geom=connectivity
 --------------------------------------
 1/18=20,19=15,38=1,57=2/1,3;
 2/9=110,12=2,17=6,18=5,40=1/2;
 3/6=3,11=9,16=1,25=1,30=1,71=1/1,2,3;
 4//1;
 5/5=2,38=5/2;
 6/7=2,8=2,9=2,10=2,28=1/1;
 7//1,2,3,16;
 1/18=20,19=15/3(2);
 2/9=110/2;
 99//99;
 2/9=110/2;
 3/6=3,11=9,16=1,25=1,30=1,71=1/1,2,3;
 4/5=5,16=3,69=1/1;
 5/5=2,38=5/2;
 7//1,2,3,16;
 1/18=20,19=15/3(-5);
 2/9=110/2;
 6/7=2,8=2,9=2,10=2,19=2,28=1/1;
 99/9=1/99;
 -------------------
 Title Card Required
 -------------------
 Symbolic Z-matrix:
 Charge =  0 Multiplicity = 1
 Na                   -0.64447   1.79305   0. 
 O                    -2.63057   1.24625   0. 
 H                    -3.17934   2.03393   0. 
 

 GradGradGradGradGradGradGradGradGradGradGradGradGradGradGradGradGradGrad
 Berny optimization.
 Initialization pass.
                           ----------------------------
                           !    Initial Parameters    !
                           ! (Angstroms and Degrees)  !
 --------------------------                            --------------------------
 ! Name  Definition              Value          Derivative Info.                !
 --------------------------------------------------------------------------------
 ! R1    R(1,2)                  2.06           estimate D2E/DX2                !
 ! R2    R(2,3)                  0.96           estimate D2E/DX2                !
 ! A1    A(1,2,3)              109.4712         estimate D2E/DX2                !
 --------------------------------------------------------------------------------
 Trust Radius=3.00D-01 FncErr=1.00D-07 GrdErr=1.00D-07
 Number of steps in this run=     20 maximum allowed number of steps=    100.
 GradGradGradGradGradGradGradGradGradGradGradGradGradGradGradGradGradGrad

                          Input orientation:                          
 ---------------------------------------------------------------------
 Center     Atomic      Atomic             Coordinates (Angstroms)
 Number     Number       Type             X           Y           Z
 ---------------------------------------------------------------------
      1         11           0       -0.644467    1.793049    0.000000
      2          8           0       -2.630571    1.246246    0.000000
      3          1           0       -3.179339    2.033935    0.000000
 ---------------------------------------------------------------------
                    Distance matrix (angstroms):
                    1          2          3
     1  Na   0.000000
     2  O    2.060000   0.000000
     3  H    2.546291   0.960000   0.000000
 Stoichiometry    HNaO
 Framework group  CS[SG(HNaO)]
 Deg. of freedom     3
 Full point group                 CS      NOp   2
 Largest Abelian subgroup         CS      NOp   2
 Largest concise Abelian subgroup C1      NOp   1
                         Standard orientation:                         
 ---------------------------------------------------------------------
 Center     Atomic      Atomic             Coordinates (Angstroms)
 Number     Number       Type             X           Y           Z
 ---------------------------------------------------------------------
      1         11           0        0.045255   -0.943000    0.000000
      2          8           0        0.045255    1.117000    0.000000
      3          1           0       -0.859842    1.437000    0.000000
 ---------------------------------------------------------------------
 Rotational constants (GHZ):    664.9611435     11.9231416     11.7131186
 Standard basis: STO-3G (5D, 7F)
 There are    12 symmetry adapted cartesian basis functions of A'  symmetry.
 There are     3 symmetry adapted cartesian basis functions of A"  symmetry.
 There are    12 symmetry adapted basis functions of A'  symmetry.
 There are     3 symmetry adapted basis functions of A"  symmetry.
    15 basis functions,    45 primitive gaussians,    15 cartesian basis functions
    10 alpha electrons       10 beta electrons
       nuclear repulsion energy        29.3014882991 Hartrees.
 NAtoms=    3 NActive=    3 NUniq=    3 SFac= 1.00D+00 NAtFMM=   60 NAOKFM=F Big=F
 Integral buffers will be    131072 words long.
 Raffenetti 1 integral format.
 Two-electron integral symmetry is turned on.
 One-electron integrals computed using PRISM.
 NBasis=    15 RedAO= T EigKep=  5.24D-01  NBF=    12     3
 NBsUse=    15 1.00D-06 EigRej= -1.00D+00 NBFU=    12     3
 ExpMin= 1.61D-01 ExpMax= 2.51D+02 ExpMxC= 2.51D+02 IAcc=1 IRadAn=         1 AccDes= 0.00D+00
 Harris functional with IExCor=  205 and IRadAn=       1 diagonalized for initial guess.
 HarFok:  IExCor=  205 AccDes= 0.00D+00 IRadAn=         1 IDoV= 1 UseB2=F ITyADJ=14
 ICtDFT=  3500011 ScaDFX=  1.000000  1.000000  1.000000  1.000000
 FoFCou: FMM=F IPFlag=           0 FMFlag=      100000 FMFlg1=           0
         NFxFlg=           0 DoJE=T BraDBF=F KetDBF=T FulRan=T
         wScrn=  0.000000 ICntrl=     500 IOpCl=  0 I1Cent=   200000004 NGrid=           0
         NMat0=    1 NMatS0=      1 NMatT0=    0 NMatD0=    1 NMtDS0=    0 NMtDT0=    0
 Petite list used in FoFCou.
 Initial guess orbital symmetries:
       Occupied  (A') (A') (A') (A') (A') (A") (A') (A') (A') (A")
       Virtual   (A') (A') (A') (A") (A')
 The electronic state of the initial guess is 1-A'.
 Keep R1 ints in memory in symmetry-blocked form, NReq=831484.
 Requested convergence on RMS density matrix=1.00D-08 within 128 cycles.
 Requested convergence on MAX density matrix=1.00D-06.
 Requested convergence on             energy=1.00D-06.
 No special actions if energy rises.
 SCF Done:  E(RHF) =  -234.194202405     A.U. after   11 cycles
            NFock= 11  Conv=0.41D-08     -V/T= 2.0142

 **********************************************************************

            Population analysis using the SCF density.

 **********************************************************************

 Orbital symmetries:
       Occupied  (A') (A') (A') (A') (A") (A') (A') (A') (A") (A')
       Virtual   (A') (A') (A") (A') (A')
 The electronic state is 1-A'.
 Alpha  occ. eigenvalues --  -40.21997 -19.82226  -2.77855  -1.43203  -1.43201
 Alpha  occ. eigenvalues --   -1.42949  -0.93813  -0.26632  -0.10198  -0.09802
 Alpha virt. eigenvalues --    0.42523   0.71401   0.71654   0.85277   0.97678
          Condensed to atoms (all electrons):
               1          2          3
     1  Na  10.207321   0.136421  -0.013365
     2  O    0.136421   8.301267   0.205019
     3  H   -0.013365   0.205019   0.835263
 Mulliken charges:
               1
     1  Na   0.669624
     2  O   -0.642707
     3  H   -0.026917
 Sum of Mulliken charges =   0.00000
 Mulliken charges with hydrogens summed into heavy atoms:
               1
     1  Na   0.669624
     2  O   -0.669624
 Electronic spatial extent (au):  <R**2>=            101.0371
 Charge=              0.0000 electrons
 Dipole moment (field-independent basis, Debye):
    X=             -0.4229    Y=             -7.6882    Z=              0.0000  Tot=              7.6998
 Quadrupole moment (field-independent basis, Debye-Ang):
   XX=             -8.8965   YY=             -9.0421   ZZ=             -9.3763
   XY=             -1.0673   XZ=              0.0000   YZ=              0.0000
 Traceless Quadrupole moment (field-independent basis, Debye-Ang):
   XX=              0.2085   YY=              0.0629   ZZ=             -0.2713
   XY=             -1.0673   XZ=              0.0000   YZ=              0.0000
 Octapole moment (field-independent basis, Debye-Ang**2):
  XXX=              1.0317  YYY=            -18.5704  ZZZ=              0.0000  XYY=             -0.5538
  XXY=             -3.1325  XXZ=              0.0000  XZZ=              0.3222  YZZ=             -3.5871
  YYZ=              0.0000  XYZ=              0.0000
 Hexadecapole moment (field-independent basis, Debye-Ang**3):
 XXXX=             -8.1653 YYYY=            -68.0739 ZZZZ=             -4.8237 XXXY=              2.6113
 XXXZ=              0.0000 YYYX=              1.0103 YYYZ=              0.0000 ZZZX=              0.0000
 ZZZY=              0.0000 XXYY=            -12.2732 XXZZ=             -2.1957 YYZZ=            -12.2436
 XXYZ=              0.0000 YYXZ=              0.0000 ZZXY=              0.8693
 N-N= 2.930148829905D+01 E-N=-6.208710932731D+02  KE= 2.309172410590D+02
 Symmetry A'   KE= 2.155437505689D+02
 Symmetry A"   KE= 1.537349049017D+01
 Calling FoFJK, ICntrl=      2127 FMM=F ISym2X=1 I1Cent= 0 IOpClX= 0 NMat=1 NMatS=1 NMatT=0.
 ***** Axes restored to original set *****
 -------------------------------------------------------------------
 Center     Atomic                   Forces (Hartrees/Bohr)
 Number     Number              X              Y              Z
 -------------------------------------------------------------------
      1       11          -0.070092324   -0.015650509    0.000000000
      2        8           0.099590503   -0.039889430    0.000000000
      3        1          -0.029498179    0.055539939    0.000000000
 -------------------------------------------------------------------
 Cartesian Forces:  Max     0.099590503 RMS     0.047868030

 GradGradGradGradGradGradGradGradGradGradGradGradGradGradGradGradGradGrad
 Berny optimization.
 FormGI is forming the generalized inverse of G from B-inverse, IUseBI=4.
 Internal  Forces:  Max     0.071732206 RMS     0.055469996
 Search for a local minimum.
 Step number   1 out of a maximum of   20
 All quantities printed in internal units (Hartrees-Bohrs-Radians)
 Mixed Optimization -- RFO/linear search
 Second derivative matrix not updated -- first step.
 The second derivative matrix:
                          R1        R2        A1
           R1           0.13012
           R2           0.00000   0.55473
           A1           0.00000   0.00000   0.16000
 ITU=  0
     Eigenvalues ---    0.13012   0.16000   0.55473
 RFO step:  Lambda=-3.81072710D-02 EMin= 1.30120177D-01
 Linear search not attempted -- first point.
 Maximum step size (   0.300) exceeded in Quadratic search.
    -- Step size scaled by   0.675
 Iteration  1 RMS(Cart)=  0.10637442 RMS(Int)=  0.05135243
 Iteration  2 RMS(Cart)=  0.04091645 RMS(Int)=  0.00006046
 Iteration  3 RMS(Cart)=  0.00006561 RMS(Int)=  0.00000000
 Iteration  4 RMS(Cart)=  0.00000000 RMS(Int)=  0.00000000
 ClnCor:  largest displacement from symmetrization is 8.88D-16 for atom     3.
 Variable       Old X    -DE/DX   Delta X   Delta X   Delta X     New X
                                 (Linear)    (Quad)   (Total)
    R1        3.89284  -0.07173   0.00000  -0.28771  -0.28771   3.60513
    R2        1.81414   0.06243   0.00000   0.07106   0.07106   1.88520
    A1        1.91063  -0.01369   0.00000  -0.04662  -0.04662   1.86401
         Item               Value     Threshold  Converged?
 Maximum Force            0.071732     0.000450     NO 
 RMS     Force            0.055470     0.000300     NO 
 Maximum Displacement     0.200170     0.001800     NO 
 RMS     Displacement     0.145122     0.001200     NO 
 Predicted change in Energy=-1.875274D-02
 GradGradGradGradGradGradGradGradGradGradGradGradGradGradGradGradGradGrad

                          Input orientation:                          
 ---------------------------------------------------------------------
 Center     Atomic      Atomic             Coordinates (Angstroms)
 Number     Number       Type             X           Y           Z
 ---------------------------------------------------------------------
      1         11           0       -0.750393    1.789231    0.000000
      2          8           0       -2.573731    1.228027    0.000000
      3          1           0       -3.130253    2.055973    0.000000
 ---------------------------------------------------------------------
                    Distance matrix (angstroms):
                    1          2          3
     1  Na   0.000000
     2  O    1.907750   0.000000
     3  H    2.394762   0.997602   0.000000
 Stoichiometry    HNaO
 Framework group  CS[SG(HNaO)]
 Deg. of freedom     3
 Full point group                 CS      NOp   2
 Largest Abelian subgroup         CS      NOp   2
 Largest concise Abelian subgroup C1      NOp   1
                         Standard orientation:                         
 ---------------------------------------------------------------------
 Center     Atomic      Atomic             Coordinates (Angstroms)
 Number     Number       Type             X           Y           Z
 ---------------------------------------------------------------------
      1         11           0        0.047751   -0.872905    0.000000
      2          8           0        0.047751    1.034846    0.000000
      3          1           0       -0.907272    1.323187    0.000000
 ---------------------------------------------------------------------
 Rotational constants (GHZ):    597.0699680     13.9064049     13.5898819
 Standard basis: STO-3G (5D, 7F)
 There are    12 symmetry adapted cartesian basis functions of A'  symmetry.
 There are     3 symmetry adapted cartesian basis functions of A"  symmetry.
 There are    12 symmetry adapted basis functions of A'  symmetry.
 There are     3 symmetry adapted basis functions of A"  symmetry.
    15 basis functions,    45 primitive gaussians,    15 cartesian basis functions
    10 alpha electrons       10 beta electrons
       nuclear repulsion energy        31.0839843835 Hartrees.
 NAtoms=    3 NActive=    3 NUniq=    3 SFac= 1.00D+00 NAtFMM=   60 NAOKFM=F Big=F
 Integral buffers will be    131072 words long.
 Raffenetti 1 integral format.
 Two-electron integral symmetry is turned on.
 One-electron integrals computed using PRISM.
 NBasis=    15 RedAO= T EigKep=  5.46D-01  NBF=    12     3
 NBsUse=    15 1.00D-06 EigRej= -1.00D+00 NBFU=    12     3
 Initial guess from the checkpoint file:  "naoh.chk"
 B after Tr=     0.000000    0.000000    0.000000
         Rot=    0.999991    0.000000    0.000000   -0.004156 Ang=  -0.48 deg.
 Initial guess orbital symmetries:
       Occupied  (A') (A') (A') (A') (A") (A') (A') (A') (A") (A')
       Virtual   (A') (A') (A') (A') (A")
 ExpMin= 1.61D-01 ExpMax= 2.51D+02 ExpMxC= 2.51D+02 IAcc=1 IRadAn=         1 AccDes= 0.00D+00
 Harris functional with IExCor=  205 and IRadAn=       1 diagonalized for initial guess.
 HarFok:  IExCor=  205 AccDes= 0.00D+00 IRadAn=         1 IDoV= 1 UseB2=F ITyADJ=14
 ICtDFT=  3500011 ScaDFX=  1.000000  1.000000  1.000000  1.000000
 FoFCou: FMM=F IPFlag=           0 FMFlag=      100000 FMFlg1=           0
         NFxFlg=           0 DoJE=T BraDBF=F KetDBF=T FulRan=T
         wScrn=  0.000000 ICntrl=     500 IOpCl=  0 I1Cent=   200000004 NGrid=           0
         NMat0=    1 NMatS0=      1 NMatT0=    0 NMatD0=    1 NMtDS0=    0 NMtDT0=    0
 Petite list used in FoFCou.
 Keep R1 ints in memory in symmetry-blocked form, NReq=831514.
 Requested convergence on RMS density matrix=1.00D-08 within 128 cycles.
 Requested convergence on MAX density matrix=1.00D-06.
 Requested convergence on             energy=1.00D-06.
 No special actions if energy rises.
 SCF Done:  E(RHF) =  -234.211865131     A.U. after   10 cycles
            NFock= 10  Conv=0.15D-08     -V/T= 2.0144
 Calling FoFJK, ICntrl=      2127 FMM=F ISym2X=1 I1Cent= 0 IOpClX= 0 NMat=1 NMatS=1 NMatT=0.
 ***** Axes restored to original set *****
 -------------------------------------------------------------------
 Center     Atomic                   Forces (Hartrees/Bohr)
 Number     Number              X              Y              Z
 -------------------------------------------------------------------
      1       11          -0.023762834   -0.004931956    0.000000000
      2        8           0.027632993   -0.008629844    0.000000000
      3        1          -0.003870160    0.013561800    0.000000000
 -------------------------------------------------------------------
 Cartesian Forces:  Max     0.027632993 RMS     0.013441038

 GradGradGradGradGradGradGradGradGradGradGradGradGradGradGradGradGradGrad
 Berny optimization.
 Using GEDIIS/GDIIS optimizer.
 FormGI is forming the generalized inverse of G from B-inverse, IUseBI=4.
 Internal  Forces:  Max     0.024162235 RMS     0.016644534
 Search for a local minimum.
 Step number   2 out of a maximum of   20
 All quantities printed in internal units (Hartrees-Bohrs-Radians)
 Mixed Optimization -- RFO/linear search
 Update second derivatives using D2CorX and points    1    2
 DE= -1.77D-02 DEPred=-1.88D-02 R= 9.42D-01
 TightC=F SS=  1.41D+00  RLast= 3.00D-01 DXNew= 5.0454D-01 9.0000D-01
 Trust test= 9.42D-01 RLast= 3.00D-01 DXMaxT set to 5.05D-01
 The second derivative matrix:
                          R1        R2        A1
           R1           0.15930
           R2          -0.02780   0.58100
           A1          -0.00510   0.00571   0.15773
 ITU=  1  0
 Use linear search instead of GDIIS.
     Eigenvalues ---    0.15284   0.16227   0.58291
 RFO step:  Lambda=-2.29495242D-04 EMin= 1.52841626D-01
 Quartic linear search produced a step of  0.35759.
 Iteration  1 RMS(Cart)=  0.07223270 RMS(Int)=  0.00065779
 Iteration  2 RMS(Cart)=  0.00047401 RMS(Int)=  0.00000007
 Iteration  3 RMS(Cart)=  0.00000010 RMS(Int)=  0.00000000
 ClnCor:  largest displacement from symmetrization is 9.93D-16 for atom     2.
 Variable       Old X    -DE/DX   Delta X   Delta X   Delta X     New X
                                 (Linear)    (Quad)   (Total)
    R1        3.60513  -0.02416  -0.10288  -0.00638  -0.10926   3.49586
    R2        1.88520   0.01341   0.02541  -0.00986   0.01555   1.90075
    A1        1.86401  -0.00821  -0.01667  -0.03266  -0.04933   1.81468
         Item               Value     Threshold  Converged?
 Maximum Force            0.024162     0.000450     NO 
 RMS     Force            0.016645     0.000300     NO 
 Maximum Displacement     0.096324     0.001800     NO 
 RMS     Displacement     0.072391     0.001200     NO 
 Predicted change in Energy=-2.025097D-03
 GradGradGradGradGradGradGradGradGradGradGradGradGradGradGradGradGradGrad

                          Input orientation:                          
 ---------------------------------------------------------------------
 Center     Atomic      Atomic             Coordinates (Angstroms)
 Number     Number       Type             X           Y           Z
 ---------------------------------------------------------------------
      1         11           0       -0.801365    1.792824    0.000000
      2          8           0       -2.558601    1.214583    0.000000
      3          1           0       -3.094410    2.065823    0.000000
 ---------------------------------------------------------------------
                    Distance matrix (angstroms):
                    1          2          3
     1  Na   0.000000
     2  O    1.849930   0.000000
     3  H    2.309239   1.005833   0.000000
 Stoichiometry    HNaO
 Framework group  CS[SG(HNaO)]
 Deg. of freedom     3
 Full point group                 CS      NOp   2
 Largest Abelian subgroup         CS      NOp   2
 Largest concise Abelian subgroup C1      NOp   1
                         Standard orientation:                         
 ---------------------------------------------------------------------
 Center     Atomic      Atomic             Coordinates (Angstroms)
 Number     Number       Type             X           Y           Z
 ---------------------------------------------------------------------
      1         11           0        0.048803   -0.844613    0.000000
      2          8           0        0.048803    1.005317    0.000000
      3          1           0       -0.927263    1.248203    0.000000
 ---------------------------------------------------------------------
 Rotational constants (GHZ):    570.0165120     14.8304424     14.4543747
 Standard basis: STO-3G (5D, 7F)
 There are    12 symmetry adapted cartesian basis functions of A'  symmetry.
 There are     3 symmetry adapted cartesian basis functions of A"  symmetry.
 There are    12 symmetry adapted basis functions of A'  symmetry.
 There are     3 symmetry adapted basis functions of A"  symmetry.
    15 basis functions,    45 primitive gaussians,    15 cartesian basis functions
    10 alpha electrons       10 beta electrons
       nuclear repulsion energy        31.9022107898 Hartrees.
 NAtoms=    3 NActive=    3 NUniq=    3 SFac= 1.00D+00 NAtFMM=   60 NAOKFM=F Big=F
 Integral buffers will be    131072 words long.
 Raffenetti 1 integral format.
 Two-electron integral symmetry is turned on.
 One-electron integrals computed using PRISM.
 NBasis=    15 RedAO= T EigKep=  5.33D-01  NBF=    12     3
 NBsUse=    15 1.00D-06 EigRej= -1.00D+00 NBFU=    12     3
 Initial guess from the checkpoint file:  "naoh.chk"
 B after Tr=     0.000000    0.000000    0.000000
         Rot=    0.999997    0.000000    0.000000   -0.002621 Ang=  -0.30 deg.
 Initial guess orbital symmetries:
       Occupied  (A') (A') (A') (A') (A") (A') (A') (A') (A") (A')
       Virtual   (A') (A') (A') (A') (A")
 ExpMin= 1.61D-01 ExpMax= 2.51D+02 ExpMxC= 2.51D+02 IAcc=1 IRadAn=         1 AccDes= 0.00D+00
 Harris functional with IExCor=  205 and IRadAn=       1 diagonalized for initial guess.
 HarFok:  IExCor=  205 AccDes= 0.00D+00 IRadAn=         1 IDoV= 1 UseB2=F ITyADJ=14
 ICtDFT=  3500011 ScaDFX=  1.000000  1.000000  1.000000  1.000000
 FoFCou: FMM=F IPFlag=           0 FMFlag=      100000 FMFlg1=           0
         NFxFlg=           0 DoJE=T BraDBF=F KetDBF=T FulRan=T
         wScrn=  0.000000 ICntrl=     500 IOpCl=  0 I1Cent=   200000004 NGrid=           0
         NMat0=    1 NMatS0=      1 NMatT0=    0 NMatD0=    1 NMtDS0=    0 NMtDT0=    0
 Petite list used in FoFCou.
 Keep R1 ints in memory in symmetry-blocked form, NReq=831529.
 Requested convergence on RMS density matrix=1.00D-08 within 128 cycles.
 Requested convergence on MAX density matrix=1.00D-06.
 Requested convergence on             energy=1.00D-06.
 No special actions if energy rises.
 SCF Done:  E(RHF) =  -234.213467038     A.U. after   10 cycles
            NFock= 10  Conv=0.12D-08     -V/T= 2.0143
 Calling FoFJK, ICntrl=      2127 FMM=F ISym2X=1 I1Cent= 0 IOpClX= 0 NMat=1 NMatS=1 NMatT=0.
 ***** Axes restored to original set *****
 -------------------------------------------------------------------
 Center     Atomic                   Forces (Hartrees/Bohr)
 Number     Number              X              Y              Z
 -------------------------------------------------------------------
      1       11           0.002961502    0.001815609    0.000000000
      2        8          -0.001852418   -0.006336044    0.000000000
      3        1          -0.001109084    0.004520435    0.000000000
 -------------------------------------------------------------------
 Cartesian Forces:  Max     0.006336044 RMS     0.002930837

 GradGradGradGradGradGradGradGradGradGradGradGradGradGradGradGradGradGrad
 Berny optimization.
 Using GEDIIS/GDIIS optimizer.
 FormGI is forming the generalized inverse of G from B-inverse, IUseBI=4.
 Internal  Forces:  Max     0.004416469 RMS     0.003593265
 Search for a local minimum.
 Step number   3 out of a maximum of   20
 All quantities printed in internal units (Hartrees-Bohrs-Radians)
 Mixed Optimization -- RFO/linear search
 Update second derivatives using D2CorX and points    1    2    3
 DE= -1.60D-03 DEPred=-2.03D-03 R= 7.91D-01
 TightC=F SS=  1.41D+00  RLast= 1.21D-01 DXNew= 8.4853D-01 3.6266D-01
 Trust test= 7.91D-01 RLast= 1.21D-01 DXMaxT set to 5.05D-01
 The second derivative matrix:
                          R1        R2        A1
           R1           0.25596
           R2          -0.01676   0.53917
           A1          -0.01388   0.02471   0.14829
 ITU=  1  1  0
 Use linear search instead of GDIIS.
     Eigenvalues ---    0.14525   0.25636   0.54181
 RFO step:  Lambda=-1.31642470D-04 EMin= 1.45247659D-01
 Quartic linear search produced a step of -0.04349.
 Iteration  1 RMS(Cart)=  0.01274525 RMS(Int)=  0.00012574
 Iteration  2 RMS(Cart)=  0.00013891 RMS(Int)=  0.00000001
 Iteration  3 RMS(Cart)=  0.00000001 RMS(Int)=  0.00000000
 ClnCor:  largest displacement from symmetrization is 1.26D-15 for atom     3.
 Variable       Old X    -DE/DX   Delta X   Delta X   Delta X     New X
                                 (Linear)    (Quad)   (Total)
    R1        3.49586   0.00338   0.00475   0.00759   0.01235   3.50821
    R2        1.90075   0.00442  -0.00068   0.01017   0.00950   1.91025
    A1        1.81468  -0.00279   0.00215  -0.02171  -0.01957   1.79512
         Item               Value     Threshold  Converged?
 Maximum Force            0.004416     0.000450     NO 
 RMS     Force            0.003593     0.000300     NO 
 Maximum Displacement     0.014565     0.001800     NO 
 RMS     Displacement     0.012809     0.001200     NO 
 Predicted change in Energy=-6.932494D-05
 GradGradGradGradGradGradGradGradGradGradGradGradGradGradGradGradGradGrad

                          Input orientation:                          
 ---------------------------------------------------------------------
 Center     Atomic      Atomic             Coordinates (Angstroms)
 Number     Number       Type             X           Y           Z
 ---------------------------------------------------------------------
      1         11           0       -0.802480    1.796344    0.000000
      2          8           0       -2.562873    1.206876    0.000000
      3          1           0       -3.089023    2.070011    0.000000
 ---------------------------------------------------------------------
                    Distance matrix (angstroms):
                    1          2          3
     1  Na   0.000000
     2  O    1.856463   0.000000
     3  H    2.302862   1.010859   0.000000
 Stoichiometry    HNaO
 Framework group  CS[SG(HNaO)]
 Deg. of freedom     3
 Full point group                 CS      NOp   2
 Largest Abelian subgroup         CS      NOp   2
 Largest concise Abelian subgroup C1      NOp   1
                         Standard orientation:                         
 ---------------------------------------------------------------------
 Center     Atomic      Atomic             Coordinates (Angstroms)
 Number     Number       Type             X           Y           Z
 ---------------------------------------------------------------------
      1         11           0        0.049277   -0.846651    0.000000
      2          8           0        0.049277    1.009812    0.000000
      3          1           0       -0.936256    1.234670    0.000000
 ---------------------------------------------------------------------
 Rotational constants (GHZ):    558.3044051     14.7477430     14.3682035
 Standard basis: STO-3G (5D, 7F)
 There are    12 symmetry adapted cartesian basis functions of A'  symmetry.
 There are     3 symmetry adapted cartesian basis functions of A"  symmetry.
 There are    12 symmetry adapted basis functions of A'  symmetry.
 There are     3 symmetry adapted basis functions of A"  symmetry.
    15 basis functions,    45 primitive gaussians,    15 cartesian basis functions
    10 alpha electrons       10 beta electrons
       nuclear repulsion energy        31.7996790634 Hartrees.
 NAtoms=    3 NActive=    3 NUniq=    3 SFac= 1.00D+00 NAtFMM=   60 NAOKFM=F Big=F
 Integral buffers will be    131072 words long.
 Raffenetti 1 integral format.
 Two-electron integral symmetry is turned on.
 One-electron integrals computed using PRISM.
 NBasis=    15 RedAO= T EigKep=  5.37D-01  NBF=    12     3
 NBsUse=    15 1.00D-06 EigRej= -1.00D+00 NBFU=    12     3
 Initial guess from the checkpoint file:  "naoh.chk"
 B after Tr=     0.000000    0.000000    0.000000
         Rot=    1.000000    0.000000    0.000000   -0.000678 Ang=  -0.08 deg.
 Initial guess orbital symmetries:
       Occupied  (A') (A') (A') (A') (A") (A') (A') (A') (A") (A')
       Virtual   (A') (A') (A') (A') (A")
 Keep R1 ints in memory in symmetry-blocked form, NReq=831514.
 Requested convergence on RMS density matrix=1.00D-08 within 128 cycles.
 Requested convergence on MAX density matrix=1.00D-06.
 Requested convergence on             energy=1.00D-06.
 No special actions if energy rises.
 SCF Done:  E(RHF) =  -234.213556221     A.U. after    9 cycles
            NFock=  9  Conv=0.19D-08     -V/T= 2.0143
 Calling FoFJK, ICntrl=      2127 FMM=F ISym2X=1 I1Cent= 0 IOpClX= 0 NMat=1 NMatS=1 NMatT=0.
 ***** Axes restored to original set *****
 -------------------------------------------------------------------
 Center     Atomic                   Forces (Hartrees/Bohr)
 Number     Number              X              Y              Z
 -------------------------------------------------------------------
      1       11           0.000365852    0.000634625    0.000000000
      2        8          -0.001120595   -0.001109936    0.000000000
      3        1           0.000754744    0.000475311    0.000000000
 -------------------------------------------------------------------
 Cartesian Forces:  Max     0.001120595 RMS     0.000651481

 GradGradGradGradGradGradGradGradGradGradGradGradGradGradGradGradGradGrad
 Berny optimization.
 Using GEDIIS/GDIIS optimizer.
 FormGI is forming the generalized inverse of G from B-inverse, IUseBI=4.
 Internal  Forces:  Max     0.001703646 RMS     0.001033336
 Search for a local minimum.
 Step number   4 out of a maximum of   20
 All quantities printed in internal units (Hartrees-Bohrs-Radians)
 Mixed Optimization -- RFO/linear search
 Update second derivatives using D2CorX and points    1    2    3    4
 DE= -8.92D-05 DEPred=-6.93D-05 R= 1.29D+00
 TightC=F SS=  1.41D+00  RLast= 2.50D-02 DXNew= 8.4853D-01 7.5033D-02
 Trust test= 1.29D+00 RLast= 2.50D-02 DXMaxT set to 5.05D-01
 The second derivative matrix:
                          R1        R2        A1
           R1           0.25632
           R2          -0.00470   0.61310
           A1           0.01470   0.06958   0.09872
 ITU=  1  1  1  0
 Use linear search instead of GDIIS.
     Eigenvalues ---    0.08810   0.25767   0.62237
 RFO step:  Lambda=-1.84702788D-05 EMin= 8.80977257D-02
 Quartic linear search produced a step of  0.41373.
 Iteration  1 RMS(Cart)=  0.01375678 RMS(Int)=  0.00011918
 Iteration  2 RMS(Cart)=  0.00010333 RMS(Int)=  0.00000000
 Iteration  3 RMS(Cart)=  0.00000000 RMS(Int)=  0.00000000
 ClnCor:  largest displacement from symmetrization is 8.88D-16 for atom     3.
 Variable       Old X    -DE/DX   Delta X   Delta X   Delta X     New X
                                 (Linear)    (Quad)   (Total)
    R1        3.50821   0.00055   0.00511  -0.00178   0.00332   3.51153
    R2        1.91025   0.00001   0.00393  -0.00167   0.00226   1.91251
    A1        1.79512  -0.00170  -0.00810  -0.01136  -0.01946   1.77566
         Item               Value     Threshold  Converged?
 Maximum Force            0.001704     0.000450     NO 
 RMS     Force            0.001033     0.000300     NO 
 Maximum Displacement     0.015898     0.001800     NO 
 RMS     Displacement     0.013806     0.001200     NO 
 Predicted change in Energy=-1.737847D-05
 GradGradGradGradGradGradGradGradGradGradGradGradGradGradGradGradGradGrad

                          Input orientation:                          
 ---------------------------------------------------------------------
 Center     Atomic      Atomic             Coordinates (Angstroms)
 Number     Number       Type             X           Y           Z
 ---------------------------------------------------------------------
      1         11           0       -0.807317    1.799640    0.000000
      2          8           0       -2.566449    1.200935    0.000000
      3          1           0       -3.080611    2.072656    0.000000
 ---------------------------------------------------------------------
                    Distance matrix (angstroms):
                    1          2          3
     1  Na   0.000000
     2  O    1.858223   0.000000
     3  H    2.289629   1.012057   0.000000
 Stoichiometry    HNaO
 Framework group  CS[SG(HNaO)]
 Deg. of freedom     3
 Full point group                 CS      NOp   2
 Largest Abelian subgroup         CS      NOp   2
 Largest concise Abelian subgroup C1      NOp   1
                         Standard orientation:                         
 ---------------------------------------------------------------------
 Center     Atomic      Atomic             Coordinates (Angstroms)
 Number     Number       Type             X           Y           Z
 ---------------------------------------------------------------------
      1         11           0        0.049545   -0.846494    0.000000
      2          8           0        0.049545    1.011728    0.000000
      3          1           0       -0.941350    1.217610    0.000000
 ---------------------------------------------------------------------
 Rotational constants (GHZ):    551.4686806     14.7414444     14.3576466
 Standard basis: STO-3G (5D, 7F)
 There are    12 symmetry adapted cartesian basis functions of A'  symmetry.
 There are     3 symmetry adapted cartesian basis functions of A"  symmetry.
 There are    12 symmetry adapted basis functions of A'  symmetry.
 There are     3 symmetry adapted basis functions of A"  symmetry.
    15 basis functions,    45 primitive gaussians,    15 cartesian basis functions
    10 alpha electrons       10 beta electrons
       nuclear repulsion energy        31.7855797498 Hartrees.
 NAtoms=    3 NActive=    3 NUniq=    3 SFac= 1.00D+00 NAtFMM=   60 NAOKFM=F Big=F
 Integral buffers will be    131072 words long.
 Raffenetti 1 integral format.
 Two-electron integral symmetry is turned on.
 One-electron integrals computed using PRISM.
 NBasis=    15 RedAO= T EigKep=  5.38D-01  NBF=    12     3
 NBsUse=    15 1.00D-06 EigRej= -1.00D+00 NBFU=    12     3
 Initial guess from the checkpoint file:  "naoh.chk"
 B after Tr=     0.000000    0.000000    0.000000
         Rot=    1.000000    0.000000    0.000000   -0.000634 Ang=  -0.07 deg.
 Initial guess orbital symmetries:
       Occupied  (A') (A') (A') (A') (A") (A') (A') (A') (A") (A')
       Virtual   (A') (A') (A') (A') (A")
 Keep R1 ints in memory in symmetry-blocked form, NReq=831514.
 Requested convergence on RMS density matrix=1.00D-08 within 128 cycles.
 Requested convergence on MAX density matrix=1.00D-06.
 Requested convergence on             energy=1.00D-06.
 No special actions if energy rises.
 SCF Done:  E(RHF) =  -234.213575240     A.U. after    9 cycles
            NFock=  9  Conv=0.23D-08     -V/T= 2.0143
 Calling FoFJK, ICntrl=      2127 FMM=F ISym2X=1 I1Cent= 0 IOpClX= 0 NMat=1 NMatS=1 NMatT=0.
 ***** Axes restored to original set *****
 -------------------------------------------------------------------
 Center     Atomic                   Forces (Hartrees/Bohr)
 Number     Number              X              Y              Z
 -------------------------------------------------------------------
      1       11           0.000001453    0.000063703    0.000000000
      2        8          -0.000375203    0.000353705    0.000000000
      3        1           0.000373751   -0.000417408    0.000000000
 -------------------------------------------------------------------
 Cartesian Forces:  Max     0.000417408 RMS     0.000254703

 GradGradGradGradGradGradGradGradGradGradGradGradGradGradGradGradGradGrad
 Berny optimization.
 Using GEDIIS/GDIIS optimizer.
 FormGI is forming the generalized inverse of G from B-inverse, IUseBI=4.
 Internal  Forces:  Max     0.000549407 RMS     0.000339842
 Search for a local minimum.
 Step number   5 out of a maximum of   20
 All quantities printed in internal units (Hartrees-Bohrs-Radians)
 Mixed Optimization -- En-DIIS/RFO-DIIS
 Update second derivatives using D2CorX and points    2    3    4    5
 DE= -1.90D-05 DEPred=-1.74D-05 R= 1.09D+00
 TightC=F SS=  1.41D+00  RLast= 1.99D-02 DXNew= 8.4853D-01 5.9615D-02
 Trust test= 1.09D+00 RLast= 1.99D-02 DXMaxT set to 5.05D-01
 The second derivative matrix:
                          R1        R2        A1
           R1           0.24906
           R2          -0.00428   0.66051
           A1           0.01500   0.04722   0.08480
 ITU=  1  1  1  1
 Use linear search instead of GDIIS.
     Eigenvalues ---    0.07958   0.25042   0.66438
 RFO step:  Lambda=-5.59645634D-07 EMin= 7.95763008D-02
 Quartic linear search produced a step of  0.08990.
 Iteration  1 RMS(Cart)=  0.00166784 RMS(Int)=  0.00000158
 Iteration  2 RMS(Cart)=  0.00000111 RMS(Int)=  0.00000000
 Iteration  3 RMS(Cart)=  0.00000000 RMS(Int)=  0.00000000
 ClnCor:  largest displacement from symmetrization is 9.93D-16 for atom     3.
 Variable       Old X    -DE/DX   Delta X   Delta X   Delta X     New X
                                 (Linear)    (Quad)   (Total)
    R1        3.51153   0.00002   0.00030  -0.00010   0.00020   3.51173
    R2        1.91251  -0.00055   0.00020  -0.00088  -0.00068   1.91183
    A1        1.77566  -0.00021  -0.00175  -0.00037  -0.00212   1.77354
         Item               Value     Threshold  Converged?
 Maximum Force            0.000549     0.000450     NO 
 RMS     Force            0.000340     0.000300     NO 
 Maximum Displacement     0.002165     0.001800     NO 
 RMS     Displacement     0.001668     0.001200     NO 
 Predicted change in Energy=-4.128759D-07
 GradGradGradGradGradGradGradGradGradGradGradGradGradGradGradGradGradGrad

                          Input orientation:                          
 ---------------------------------------------------------------------
 Center     Atomic      Atomic             Coordinates (Angstroms)
 Number     Number       Type             X           Y           Z
 ---------------------------------------------------------------------
      1         11           0       -0.807974    1.800010    0.000000
      2          8           0       -2.566938    1.200477    0.000000
      3          1           0       -3.079465    2.072743    0.000000
 ---------------------------------------------------------------------
                    Distance matrix (angstroms):
                    1          2          3
     1  Na   0.000000
     2  O    1.858330   0.000000
     3  H    2.287805   1.011697   0.000000
 Stoichiometry    HNaO
 Framework group  CS[SG(HNaO)]
 Deg. of freedom     3
 Full point group                 CS      NOp   2
 Largest Abelian subgroup         CS      NOp   2
 Largest concise Abelian subgroup C1      NOp   1
                         Standard orientation:                         
 ---------------------------------------------------------------------
 Center     Atomic      Atomic             Coordinates (Angstroms)
 Number     Number       Type             X           Y           Z
 ---------------------------------------------------------------------
      1         11           0        0.049549   -0.846434    0.000000
      2          8           0        0.049549    1.011896    0.000000
      3          1           0       -0.941427    1.215608    0.000000
 ---------------------------------------------------------------------
 Rotational constants (GHZ):    551.2862548     14.7422058     14.3582452
 Standard basis: STO-3G (5D, 7F)
 There are    12 symmetry adapted cartesian basis functions of A'  symmetry.
 There are     3 symmetry adapted cartesian basis functions of A"  symmetry.
 There are    12 symmetry adapted basis functions of A'  symmetry.
 There are     3 symmetry adapted basis functions of A"  symmetry.
    15 basis functions,    45 primitive gaussians,    15 cartesian basis functions
    10 alpha electrons       10 beta electrons
       nuclear repulsion energy        31.7876478540 Hartrees.
 NAtoms=    3 NActive=    3 NUniq=    3 SFac= 1.00D+00 NAtFMM=   60 NAOKFM=F Big=F
 Integral buffers will be    131072 words long.
 Raffenetti 1 integral format.
 Two-electron integral symmetry is turned on.
 One-electron integrals computed using PRISM.
 NBasis=    15 RedAO= T EigKep=  5.38D-01  NBF=    12     3
 NBsUse=    15 1.00D-06 EigRej= -1.00D+00 NBFU=    12     3
 Initial guess from the checkpoint file:  "naoh.chk"
 B after Tr=     0.000000    0.000000    0.000000
         Rot=    1.000000    0.000000    0.000000   -0.000056 Ang=  -0.01 deg.
 Initial guess orbital symmetries:
       Occupied  (A') (A') (A') (A') (A") (A') (A') (A') (A") (A')
       Virtual   (A') (A') (A') (A') (A")
 Keep R1 ints in memory in symmetry-blocked form, NReq=831514.
 Requested convergence on RMS density matrix=1.00D-08 within 128 cycles.
 Requested convergence on MAX density matrix=1.00D-06.
 Requested convergence on             energy=1.00D-06.
 No special actions if energy rises.
 SCF Done:  E(RHF) =  -234.213575705     A.U. after    7 cycles
            NFock=  7  Conv=0.69D-08     -V/T= 2.0143
 Calling FoFJK, ICntrl=      2127 FMM=F ISym2X=1 I1Cent= 0 IOpClX= 0 NMat=1 NMatS=1 NMatT=0.
 ***** Axes restored to original set *****
 -------------------------------------------------------------------
 Center     Atomic                   Forces (Hartrees/Bohr)
 Number     Number              X              Y              Z
 -------------------------------------------------------------------
      1       11          -0.000007859    0.000001521    0.000000000
      2        8          -0.000058230    0.000096543    0.000000000
      3        1           0.000066089   -0.000098064    0.000000000
 -------------------------------------------------------------------
 Cartesian Forces:  Max     0.000098064 RMS     0.000054528

 GradGradGradGradGradGradGradGradGradGradGradGradGradGradGradGradGradGrad
 Berny optimization.
 Using GEDIIS/GDIIS optimizer.
 FormGI is forming the generalized inverse of G from B-inverse, IUseBI=4.
 Internal  Forces:  Max     0.000118029 RMS     0.000068736
 Search for a local minimum.
 Step number   6 out of a maximum of   20
 All quantities printed in internal units (Hartrees-Bohrs-Radians)
 Mixed Optimization -- En-DIIS/RFO-DIIS
 Swapping is turned off.
 Update second derivatives using D2CorX and points    3    4    5    6
 DE= -4.65D-07 DEPred=-4.13D-07 R= 1.13D+00
 Trust test= 1.13D+00 RLast= 2.23D-03 DXMaxT set to 5.05D-01
 The second derivative matrix:
                          R1        R2        A1
           R1           0.25204
           R2          -0.00841   0.55257
           A1           0.01319   0.02561   0.08575
 ITU=  0  1  1  1
     Eigenvalues ---    0.08324   0.25294   0.55416
 En-DIIS/RFO-DIIS IScMMF=        0 using points:     6    5
 RFO step:  Lambda=-1.92088108D-08.
 DidBck=F Rises=F RFO-DIIS coefs:    1.15172   -0.15172
 Iteration  1 RMS(Cart)=  0.00013695 RMS(Int)=  0.00000001
 Iteration  2 RMS(Cart)=  0.00000001 RMS(Int)=  0.00000000
 ClnCor:  largest displacement from symmetrization is 4.44D-16 for atom     3.
 Variable       Old X    -DE/DX   Delta X   Delta X   Delta X     New X
                                 (Linear)    (Quad)   (Total)
    R1        3.51173  -0.00001   0.00003  -0.00006  -0.00003   3.51171
    R2        1.91183  -0.00012  -0.00010  -0.00011  -0.00021   1.91162
    A1        1.77354  -0.00001  -0.00032   0.00023  -0.00010   1.77344
         Item               Value     Threshold  Converged?
 Maximum Force            0.000118     0.000450     YES
 RMS     Force            0.000069     0.000300     YES
 Maximum Displacement     0.000182     0.001800     YES
 RMS     Displacement     0.000137     0.001200     YES
 Predicted change in Energy=-1.314073D-08
 Optimization completed.
    -- Stationary point found.
                           ----------------------------
                           !   Optimized Parameters   !
                           ! (Angstroms and Degrees)  !
 --------------------------                            --------------------------
 ! Name  Definition              Value          Derivative Info.                !
 --------------------------------------------------------------------------------
 ! R1    R(1,2)                  1.8583         -DE/DX =    0.0                 !
 ! R2    R(2,3)                  1.0117         -DE/DX =   -0.0001              !
 ! A1    A(1,2,3)              101.6163         -DE/DX =    0.0                 !
 --------------------------------------------------------------------------------
 GradGradGradGradGradGradGradGradGradGradGradGradGradGradGradGradGradGrad

                          Input orientation:                          
 ---------------------------------------------------------------------
 Center     Atomic      Atomic             Coordinates (Angstroms)
 Number     Number       Type             X           Y           Z
 ---------------------------------------------------------------------
      1         11           0       -0.807974    1.800010    0.000000
      2          8           0       -2.566938    1.200477    0.000000
      3          1           0       -3.079465    2.072743    0.000000
 ---------------------------------------------------------------------
                    Distance matrix (angstroms):
                    1          2          3
     1  Na   0.000000
     2  O    1.858330   0.000000
     3  H    2.287805   1.011697   0.000000
 Stoichiometry    HNaO
 Framework group  CS[SG(HNaO)]
 Deg. of freedom     3
 Full point group                 CS      NOp   2
 Largest Abelian subgroup         CS      NOp   2
 Largest concise Abelian subgroup C1      NOp   1
                         Standard orientation:                         
 ---------------------------------------------------------------------
 Center     Atomic      Atomic             Coordinates (Angstroms)
 Number     Number       Type             X           Y           Z
 ---------------------------------------------------------------------
      1         11           0        0.049549   -0.846434    0.000000
      2          8           0        0.049549    1.011896    0.000000
      3          1           0       -0.941427    1.215608    0.000000
 ---------------------------------------------------------------------
 Rotational constants (GHZ):    551.2862548     14.7422058     14.3582452

 **********************************************************************

            Population analysis using the SCF density.

 **********************************************************************

 Orbital symmetries:
       Occupied  (A') (A') (A') (A') (A") (A') (A') (A') (A") (A')
       Virtual   (A') (A') (A") (A') (A')
 The electronic state is 1-A'.
 Alpha  occ. eigenvalues --  -40.18775 -19.86767  -2.75323  -1.40723  -1.40598
 Alpha  occ. eigenvalues --   -1.40581  -0.95083  -0.28323  -0.13128  -0.12912
 Alpha virt. eigenvalues --    0.44867   0.73682   0.73940   0.82671   1.02168
          Condensed to atoms (all electrons):
               1          2          3
     1  Na  10.218541   0.155528  -0.016376
     2  O    0.155528   8.235259   0.201710
     3  H   -0.016376   0.201710   0.864476
 Mulliken charges:
               1
     1  Na   0.642306
     2  O   -0.592496
     3  H   -0.049810
 Sum of Mulliken charges =   0.00000
 Mulliken charges with hydrogens summed into heavy atoms:
               1
     1  Na   0.642306
     2  O   -0.642306
 Electronic spatial extent (au):  <R**2>=             86.6101
 Charge=              0.0000 electrons
 Dipole moment (field-independent basis, Debye):
    X=             -0.3156    Y=             -6.8967    Z=              0.0000  Tot=              6.9039
 Quadrupole moment (field-independent basis, Debye-Ang):
   XX=             -8.9551   YY=             -9.3212   ZZ=             -9.4393
   XY=             -0.7982   XZ=              0.0000   YZ=              0.0000
 Traceless Quadrupole moment (field-independent basis, Debye-Ang):
   XX=              0.2835   YY=             -0.0827   ZZ=             -0.2008
   XY=             -0.7982   XZ=              0.0000   YZ=              0.0000
 Octapole moment (field-independent basis, Debye-Ang**2):
  XXX=              1.2285  YYY=            -15.5284  ZZZ=              0.0000  XYY=             -0.1074
  XXY=             -2.8194  XXZ=              0.0000  XZZ=              0.3658  YZZ=             -3.2010
  YYZ=              0.0000  XYZ=              0.0000
 Hexadecapole moment (field-independent basis, Debye-Ang**3):
 XXXX=             -9.0438 YYYY=            -56.2249 ZZZZ=             -4.9100 XXXY=              2.5780
 XXXZ=              0.0000 YYYX=              1.6080 YYYZ=              0.0000 ZZZX=              0.0000
 ZZZY=              0.0000 XXYY=            -10.4819 XXZZ=             -2.3578 YYZZ=            -10.1739
 XXYZ=              0.0000 YYXZ=              0.0000 ZZXY=              0.8315
 N-N= 3.178764785400D+01 E-N=-6.258595425649D+02  KE= 2.309013525897D+02
 Symmetry A'   KE= 2.155665139867D+02
 Symmetry A"   KE= 1.533483860305D+01
 1\1\GINC-MAYANK-HP\FOpt\RHF\STO-3G\H1Na1O1\MAYANK\19-Feb-2025\0\\# opt
  freq hf/sto-3g geom=connectivity\\Title Card Required\\0,1\Na,-0.8079
 744689,1.800009945,0.\O,-2.5669376114,1.2004774229,0.\H,-3.0794647698,
 2.0727431421,0.\\Version=AM64L-G09RevD.01\State=1-A'\HF=-234.2135757\R
 MSD=6.947e-09\RMSF=5.453e-05\Dipole=2.5282111,0.9929139,0.\Quadrupole=
 0.3292766,-0.1799922,-0.1492845,-0.5530287,0.,0.\PG=CS [SG(H1Na1O1)]\\
 @


 The juvenile sea squirt wanders through the sea searching
 for a suitable rock or hunk of coral to cling to and make
 its home for life.  For this task it has a rudimentary
 nervous system.  When it finds its spot and takes root, it
 doesn't need its brain any more so it eats it.
 It's rather like getting tenure.

                               -- source unknown
 Job cpu time:       0 days  0 hours  0 minutes  2.7 seconds.
 File lengths (MBytes):  RWF=      5 Int=      0 D2E=      0 Chk=      1 Scr=      1
 Normal termination of Gaussian 09 at Wed Feb 19 03:45:59 2025.
 Link1:  Proceeding to internal job step number  2.
 ---------------------------------------------------------------
 #N Geom=AllCheck Guess=TCheck SCRF=Check GenChk RHF/STO-3G Freq
 ---------------------------------------------------------------
 1/10=4,29=7,30=1,38=1,40=1/1,3;
 2/12=2,40=1/2;
 3/6=3,11=1,14=-4,16=1,25=1,30=1,70=2,71=2,116=1,140=1/1,2,3;
 4/5=101/1;
 5/5=2,98=1/2;
 8/6=4,10=90,11=11/1;
 10/13=10,15=4/2;
 11/6=3,8=1,9=11,15=111,16=1/1,2,10;
 10/6=1/2;
 6/7=2,8=2,9=2,10=2,18=1,28=1/1;
 7/8=1,10=1,25=1/1,2,3,16;
 1/10=4,30=1/3;
 99//99;
 Structure from the checkpoint file:  "naoh.chk"
 -------------------
 Title Card Required
 -------------------
 Charge =  0 Multiplicity = 1
 Redundant internal coordinates found in file.
 Na,0,-0.8079744689,1.800009945,0.
 O,0,-2.5669376114,1.2004774229,0.
 H,0,-3.0794647698,2.0727431421,0.
 Recover connectivity data from disk.

 GradGradGradGradGradGradGradGradGradGradGradGradGradGradGradGradGradGrad
 Berny optimization.
 Initialization pass.
                           ----------------------------
                           !    Initial Parameters    !
                           ! (Angstroms and Degrees)  !
 --------------------------                            --------------------------
 ! Name  Definition              Value          Derivative Info.                !
 --------------------------------------------------------------------------------
 ! R1    R(1,2)                  1.8583         calculate D2E/DX2 analytically  !
 ! R2    R(2,3)                  1.0117         calculate D2E/DX2 analytically  !
 ! A1    A(1,2,3)              101.6163         calculate D2E/DX2 analytically  !
 --------------------------------------------------------------------------------
 Trust Radius=3.00D-01 FncErr=1.00D-07 GrdErr=1.00D-07
 Number of steps in this run=      2 maximum allowed number of steps=      2.
 GradGradGradGradGradGradGradGradGradGradGradGradGradGradGradGradGradGrad

                          Input orientation:                          
 ---------------------------------------------------------------------
 Center     Atomic      Atomic             Coordinates (Angstroms)
 Number     Number       Type             X           Y           Z
 ---------------------------------------------------------------------
      1         11           0       -0.807974    1.800010    0.000000
      2          8           0       -2.566938    1.200477    0.000000
      3          1           0       -3.079465    2.072743    0.000000
 ---------------------------------------------------------------------
                    Distance matrix (angstroms):
                    1          2          3
     1  Na   0.000000
     2  O    1.858330   0.000000
     3  H    2.287805   1.011697   0.000000
 Stoichiometry    HNaO
 Framework group  CS[SG(HNaO)]
 Deg. of freedom     3
 Full point group                 CS      NOp   2
 Largest Abelian subgroup         CS      NOp   2
 Largest concise Abelian subgroup C1      NOp   1
                         Standard orientation:                         
 ---------------------------------------------------------------------
 Center     Atomic      Atomic             Coordinates (Angstroms)
 Number     Number       Type             X           Y           Z
 ---------------------------------------------------------------------
      1         11           0        0.049549   -0.846434    0.000000
      2          8           0        0.049549    1.011896    0.000000
      3          1           0       -0.941427    1.215608    0.000000
 ---------------------------------------------------------------------
 Rotational constants (GHZ):    551.2862548     14.7422058     14.3582452
 Standard basis: STO-3G (5D, 7F)
 There are    12 symmetry adapted cartesian basis functions of A'  symmetry.
 There are     3 symmetry adapted cartesian basis functions of A"  symmetry.
 There are    12 symmetry adapted basis functions of A'  symmetry.
 There are     3 symmetry adapted basis functions of A"  symmetry.
    15 basis functions,    45 primitive gaussians,    15 cartesian basis functions
    10 alpha electrons       10 beta electrons
       nuclear repulsion energy        31.7876478540 Hartrees.
 NAtoms=    3 NActive=    3 NUniq=    3 SFac= 1.00D+00 NAtFMM=   60 NAOKFM=F Big=F
 Integral buffers will be    131072 words long.
 Raffenetti 1 integral format.
 Two-electron integral symmetry is turned on.
 One-electron integrals computed using PRISM.
 NBasis=    15 RedAO= T EigKep=  5.38D-01  NBF=    12     3
 NBsUse=    15 1.00D-06 EigRej= -1.00D+00 NBFU=    12     3
 Initial guess from the checkpoint file:  "naoh.chk"
 B after Tr=     0.000000    0.000000    0.000000
         Rot=    1.000000    0.000000    0.000000    0.000000 Ang=   0.00 deg.
 Initial guess orbital symmetries:
       Occupied  (A') (A') (A') (A') (A") (A') (A') (A') (A") (A')
       Virtual   (A') (A') (A") (A') (A')
 Keep R1 ints in memory in symmetry-blocked form, NReq=831514.
 Requested convergence on RMS density matrix=1.00D-08 within 128 cycles.
 Requested convergence on MAX density matrix=1.00D-06.
 Requested convergence on             energy=1.00D-06.
 No special actions if energy rises.
 SCF Done:  E(RHF) =  -234.213575705     A.U. after    1 cycles
            NFock=  1  Conv=0.17D-08     -V/T= 2.0143
 Range of M.O.s used for correlation:     1    15
 NBasis=    15 NAE=    10 NBE=    10 NFC=     0 NFV=     0
 NROrb=     15 NOA=    10 NOB=    10 NVA=     5 NVB=     5
          Differentiating once with respect to electric field.
                with respect to dipole field.
          Electric field/nuclear overlap derivatives assumed to be zero.
 Keep R1 ints in memory in symmetry-blocked form, NReq=813321.
          There are     3 degrees of freedom in the 1st order CPHF.  IDoFFX=0 NUNeed=     3.
      3 vectors produced by pass  0 Test12= 1.67D-15 3.33D-08 XBig12= 1.88D+00 1.12D+00.
 AX will form     3 AO Fock derivatives at one time.
      3 vectors produced by pass  1 Test12= 1.67D-15 3.33D-08 XBig12= 3.06D-02 1.07D-01.
      3 vectors produced by pass  2 Test12= 1.67D-15 3.33D-08 XBig12= 8.03D-04 1.35D-02.
      3 vectors produced by pass  3 Test12= 1.67D-15 3.33D-08 XBig12= 1.40D-05 2.08D-03.
      3 vectors produced by pass  4 Test12= 1.67D-15 3.33D-08 XBig12= 2.90D-08 7.34D-05.
      3 vectors produced by pass  5 Test12= 1.67D-15 3.33D-08 XBig12= 9.69D-11 6.24D-06.
      3 vectors produced by pass  6 Test12= 1.67D-15 3.33D-08 XBig12= 4.05D-13 3.07D-07.
      1 vectors produced by pass  7 Test12= 1.67D-15 3.33D-08 XBig12= 5.04D-15 2.94D-08.
 InvSVY:  IOpt=1 It=  1 EMax= 5.25D-17
 Solved reduced A of dimension    22 with     3 vectors.
 End of Minotr F.D. properties file   721 does not exist.
 End of Minotr F.D. properties file   722 does not exist.
 End of Minotr F.D. properties file   788 does not exist.
 Symmetrizing basis deriv contribution to polar:
 IMax=3 JMax=2 DiffMx= 0.00D+00
 G2DrvN: will do     4 centers at a time, making    1 passes.
 PxScal for G2LodP:  IOpCl= 0 ISclPx=1 IMOff=     1 NMtTot=     4 NTT=     120 ScalPx= 1.59D+00
 Calling FoFCou, ICntrl=  3107 FMM=F I1Cent=   0 AccDes= 0.00D+00.
 End of G2Drv F.D. properties file   721 does not exist.
 End of G2Drv F.D. properties file   722 does not exist.
 End of G2Drv F.D. properties file   788 does not exist.
          IDoAtm=111
          Differentiating once with respect to electric field.
                with respect to dipole field.
          Differentiating once with respect to nuclear coordinates.
 Keep R1 ints in memory in symmetry-blocked form, NReq=813390.
          There are    12 degrees of freedom in the 1st order CPHF.  IDoFFX=5 NUNeed=    12.
 Will reuse    3 saved solutions.
      6 vectors produced by pass  0 Test12= 4.17D-16 8.33D-09 XBig12= 1.61D-02 1.15D-01.
 AX will form     6 AO Fock derivatives at one time.
      6 vectors produced by pass  1 Test12= 4.17D-16 8.33D-09 XBig12= 3.99D-04 1.55D-02.
      6 vectors produced by pass  2 Test12= 4.17D-16 8.33D-09 XBig12= 1.69D-06 7.05D-04.
      6 vectors produced by pass  3 Test12= 4.17D-16 8.33D-09 XBig12= 7.03D-09 4.97D-05.
      6 vectors produced by pass  4 Test12= 4.17D-16 8.33D-09 XBig12= 4.34D-11 2.73D-06.
      6 vectors produced by pass  5 Test12= 4.17D-16 8.33D-09 XBig12= 1.06D-13 2.22D-07.
 InvSVY:  IOpt=1 It=  1 EMax= 2.68D-17
 Solved reduced A of dimension    36 with     6 vectors.
 Isotropic polarizability for W=    0.000000        4.78 Bohr**3.
 End of Minotr F.D. properties file   721 does not exist.
 End of Minotr F.D. properties file   722 does not exist.
 End of Minotr F.D. properties file   788 does not exist.

 **********************************************************************

            Population analysis using the SCF density.

 **********************************************************************

 Orbital symmetries:
       Occupied  (A') (A') (A') (A') (A") (A') (A') (A') (A") (A')
       Virtual   (A') (A') (A") (A') (A')
 The electronic state is 1-A'.
 Alpha  occ. eigenvalues --  -40.18775 -19.86767  -2.75323  -1.40723  -1.40598
 Alpha  occ. eigenvalues --   -1.40581  -0.95083  -0.28323  -0.13128  -0.12912
 Alpha virt. eigenvalues --    0.44867   0.73682   0.73940   0.82671   1.02168
          Condensed to atoms (all electrons):
               1          2          3
     1  Na  10.218541   0.155528  -0.016376
     2  O    0.155528   8.235259   0.201710
     3  H   -0.016376   0.201710   0.864476
 Mulliken charges:
               1
     1  Na   0.642306
     2  O   -0.592496
     3  H   -0.049810
 Sum of Mulliken charges =   0.00000
 Mulliken charges with hydrogens summed into heavy atoms:
               1
     1  Na   0.642306
     2  O   -0.642306
 APT charges:
               1
     1  Na   0.803333
     2  O   -0.613902
     3  H   -0.189432
 Sum of APT charges =   0.00000
 APT charges with hydrogens summed into heavy atoms:
               1
     1  Na   0.803333
     2  O   -0.803333
 Electronic spatial extent (au):  <R**2>=             86.6101
 Charge=              0.0000 electrons
 Dipole moment (field-independent basis, Debye):
    X=             -0.3156    Y=             -6.8967    Z=              0.0000  Tot=              6.9039
 Quadrupole moment (field-independent basis, Debye-Ang):
   XX=             -8.9551   YY=             -9.3212   ZZ=             -9.4393
   XY=             -0.7982   XZ=              0.0000   YZ=              0.0000
 Traceless Quadrupole moment (field-independent basis, Debye-Ang):
   XX=              0.2835   YY=             -0.0827   ZZ=             -0.2008
   XY=             -0.7982   XZ=              0.0000   YZ=              0.0000
 Octapole moment (field-independent basis, Debye-Ang**2):
  XXX=              1.2285  YYY=            -15.5284  ZZZ=              0.0000  XYY=             -0.1074
  XXY=             -2.8194  XXZ=              0.0000  XZZ=              0.3658  YZZ=             -3.2010
  YYZ=              0.0000  XYZ=              0.0000
 Hexadecapole moment (field-independent basis, Debye-Ang**3):
 XXXX=             -9.0438 YYYY=            -56.2249 ZZZZ=             -4.9100 XXXY=              2.5780
 XXXZ=              0.0000 YYYX=              1.6080 YYYZ=              0.0000 ZZZX=              0.0000
 ZZZY=              0.0000 XXYY=            -10.4819 XXZZ=             -2.3578 YYZZ=            -10.1739
 XXYZ=              0.0000 YYXZ=              0.0000 ZZXY=              0.8315
 N-N= 3.178764785400D+01 E-N=-6.258595425719D+02  KE= 2.309013525919D+02
 Symmetry A'   KE= 2.155665139905D+02
 Symmetry A"   KE= 1.533483860140D+01
  Exact polarizability:   5.492  -1.961   7.583   0.000   0.000   1.257
 Approx polarizability:   4.581  -0.663   5.526   0.000   0.000   0.867
 Calling FoFJK, ICntrl=    100127 FMM=F ISym2X=1 I1Cent= 0 IOpClX= 0 NMat=1 NMatS=1 NMatT=0.
 Full mass-weighted force constant matrix:
 Low frequencies ---   -0.0021   -0.0020   -0.0015    2.1295    7.2421   41.1365
 Low frequencies ---  789.0798  861.7172 3856.2989
 Diagonal vibrational polarizability:
        0.6863889       3.2224614       0.0000000
 Diagonal vibrational hyperpolarizability:
        6.0202727      -8.2854600       0.0000000
 Harmonic frequencies (cm**-1), IR intensities (KM/Mole), Raman scattering
 activities (A**4/AMU), depolarization ratios for plane and unpolarized
 incident light, reduced masses (AMU), force constants (mDyne/A),
 and normal coordinates:
                      1                      2                      3
                     A'                     A'                     A'
 Frequencies --    789.0797               861.7172              3856.2989
 Red. masses --      1.2023                 6.4649                 1.0663
 Frc consts  --      0.4411                 2.8284                 9.3424
 IR Inten    --      3.4151                83.7529               401.1494
 Raman Activ --      6.6772                 1.2453                42.4609
 Depolar (P) --      0.7300                 0.3317                 0.4133
 Depolar (U) --      0.8439                 0.4982                 0.5848
  Atom  AN      X      Y      Z        X      Y      Z        X      Y      Z
     1  11     0.02  -0.07   0.00     0.02   0.30   0.00     0.00   0.00   0.00
     2   8    -0.05   0.05   0.00    -0.05  -0.48   0.00     0.06  -0.02   0.00
     3   1     0.17   0.98   0.00     0.28   0.77   0.00    -0.97   0.23   0.00

 -------------------
 - Thermochemistry -
 -------------------
 Temperature   298.150 Kelvin.  Pressure   1.00000 Atm.
 Atom     1 has atomic number 11 and mass  22.98977
 Atom     2 has atomic number  8 and mass  15.99491
 Atom     3 has atomic number  1 and mass   1.00783
 Molecular mass:    39.99251 amu.
 Principal axes and moments of inertia in atomic units:
                           1         2         3
     Eigenvalues --     3.27369 122.42003 125.69372
           X           -0.03795   0.99928   0.00000
           Y            0.99928   0.03795   0.00000
           Z            0.00000   0.00000   1.00000
 This molecule is an asymmetric top.
 Rotational symmetry number  1.
 Rotational temperatures (Kelvin)     26.45754     0.70751     0.68909
 Rotational constants (GHZ):         551.28625    14.74221    14.35825
 Zero-point vibrational energy      32939.7 (Joules/Mol)
                                    7.87279 (Kcal/Mol)
 Vibrational temperatures:   1135.31  1239.82  5548.35
          (Kelvin)
 
 Zero-point correction=                           0.012546 (Hartree/Particle)
 Thermal correction to Energy=                    0.015523
 Thermal correction to Enthalpy=                  0.016467
 Thermal correction to Gibbs Free Energy=        -0.010105
 Sum of electronic and zero-point Energies=           -234.201030
 Sum of electronic and thermal Energies=              -234.198053
 Sum of electronic and thermal Enthalpies=            -234.197109
 Sum of electronic and thermal Free Energies=         -234.223681
 
                     E (Thermal)             CV                S
                      KCal/Mol        Cal/Mol-Kelvin    Cal/Mol-Kelvin
 Total                    9.741              7.185             55.926
 Electronic               0.000              0.000              0.000
 Translational            0.889              2.981             36.986
 Rotational               0.889              2.981             18.561
 Vibrational              7.963              1.223              0.379
                       Q            Log10(Q)             Ln(Q)
 Total Bot       0.444811D+05          4.648175         10.702819
 Total V=0       0.262399D+11         10.418963         23.990548
 Vib (Bot)       0.176118D-05         -5.754196        -13.249526
 Vib (V=0)       0.103894D+01          0.016591          0.038203
 Electronic      0.100000D+01          0.000000          0.000000
 Translational   0.994084D+07          6.997423         16.112162
 Rotational      0.254067D+04          3.404948          7.840183
 ***** Axes restored to original set *****
 -------------------------------------------------------------------
 Center     Atomic                   Forces (Hartrees/Bohr)
 Number     Number              X              Y              Z
 -------------------------------------------------------------------
      1       11          -0.000007857    0.000001521    0.000000000
      2        8          -0.000058233    0.000096544    0.000000000
      3        1           0.000066090   -0.000098065    0.000000000
 -------------------------------------------------------------------
 Cartesian Forces:  Max     0.000098065 RMS     0.000054529
 FormGI is forming the generalized inverse of G from B-inverse, IUseBI=4.

 GradGradGradGradGradGradGradGradGradGradGradGradGradGradGradGradGradGrad
 Berny optimization.
 Internal  Forces:  Max     0.000118031 RMS     0.000068737
 Search for a local minimum.
 Step number   1 out of a maximum of    2
 All quantities printed in internal units (Hartrees-Bohrs-Radians)
 Second derivative matrix not updated -- analytic derivatives used.
 The second derivative matrix:
                          R1        R2        A1
           R1           0.26399
           R2          -0.01386   0.53358
           A1           0.01606   0.03141   0.08429
 ITU=  0
     Eigenvalues ---    0.08053   0.26497   0.53636
 Angle between quadratic step and forces=  13.84 degrees.
 Linear search not attempted -- first point.
 Iteration  1 RMS(Cart)=  0.00013085 RMS(Int)=  0.00000001
 Iteration  2 RMS(Cart)=  0.00000001 RMS(Int)=  0.00000000
 ClnCor:  largest displacement from symmetrization is 2.22D-16 for atom     1.
 Variable       Old X    -DE/DX   Delta X   Delta X   Delta X     New X
                                 (Linear)    (Quad)   (Total)
    R1        3.51173  -0.00001   0.00000  -0.00003  -0.00003   3.51170
    R2        1.91183  -0.00012   0.00000  -0.00022  -0.00022   1.91161
    A1        1.77354  -0.00001   0.00000  -0.00008  -0.00008   1.77346
         Item               Value     Threshold  Converged?
 Maximum Force            0.000118     0.000450     YES
 RMS     Force            0.000069     0.000300     YES
 Maximum Displacement     0.000170     0.001800     YES
 RMS     Displacement     0.000131     0.001200     YES
 Predicted change in Energy=-1.349408D-08
 Optimization completed.
    -- Stationary point found.
                           ----------------------------
                           !   Optimized Parameters   !
                           ! (Angstroms and Degrees)  !
 --------------------------                            --------------------------
 ! Name  Definition              Value          Derivative Info.                !
 --------------------------------------------------------------------------------
 ! R1    R(1,2)                  1.8583         -DE/DX =    0.0                 !
 ! R2    R(2,3)                  1.0117         -DE/DX =   -0.0001              !
 ! A1    A(1,2,3)              101.6163         -DE/DX =    0.0                 !
 --------------------------------------------------------------------------------
 GradGradGradGradGradGradGradGradGradGradGradGradGradGradGradGradGradGrad

 1\1\GINC-MAYANK-HP\Freq\RHF\STO-3G\H1Na1O1\MAYANK\19-Feb-2025\0\\#N Ge
 om=AllCheck Guess=TCheck SCRF=Check GenChk RHF/STO-3G Freq\\Title Card
  Required\\0,1\Na,-0.8079744689,1.800009945,0.\O,-2.5669376114,1.20047
 74229,0.\H,-3.0794647698,2.0727431421,0.\\Version=AM64L-G09RevD.01\Sta
 te=1-A'\HF=-234.2135757\RMSD=1.678e-09\RMSF=5.453e-05\ZeroPoint=0.0125
 461\Thermal=0.0155226\Dipole=2.5282111,0.992914,0.\DipoleDeriv=0.88073
 54,-0.0126898,0.,0.0270252,0.7493414,0.,0.,0.,0.7799233,-0.7099862,-0.
 2458758,0.,-0.4052936,-0.2854875,0.,0.,0.,-0.8462311,-0.1707492,0.2585
 656,0.,0.3782684,-0.4638539,0.,0.,0.,0.0663079\Polar=8.5632732,-0.9145
 886,4.5118831,0.,0.,1.2571397\PolarDeriv=3.7405567,0.2548493,-0.009146
 7,0.,0.,-0.156447,0.5763344,1.4823462,0.4780246,0.,0.,0.0081291,0.,0.,
 0.,1.69657,0.2501061,0.,-0.5806748,-2.3987232,0.1764813,0.,0.,-0.00961
 12,-1.6679123,1.5600863,-4.3026617,0.,0.,0.0635805,0.,0.,0.,0.024383,-
 2.0527555,0.,-3.1598819,2.143874,-0.1673346,0.,0.,0.1660582,1.0915779,
 -3.0424325,3.8246371,0.,0.,-0.0717095,0.,0.,0.,-1.720953,1.8026494,0.\
 HyperPolar=102.8410193,19.5923757,13.5805759,12.0561138,0.,0.,0.,15.05
 59458,2.8872055,0.\PG=CS [SG(H1Na1O1)]\NImag=0\\0.24001970,0.07490728,
 0.03081072,0.,0.,0.00000174,-0.23485608,-0.08937073,0.,0.39817007,-0.0
 6000614,-0.02430462,0.,-0.15648187,0.40602327,0.,0.,0.00000038,0.,0.,0
 .00005845,-0.00516362,0.01446346,0.,-0.16331398,0.21648801,0.,0.168477
 61,-0.01490113,-0.00650611,0.,0.24585260,-0.38171866,0.,-0.23095147,0.
 38822476,0.,0.,-0.00000212,0.,0.,-0.00005883,0.,0.,0.00006095\\0.00000
 786,-0.00000152,0.,0.00005823,-0.00009654,0.,-0.00006609,0.00009807,0.
 \\\@


 ABALONE: AN EXPRESSION OF DISBELIEF.
 Job cpu time:       0 days  0 hours  0 minutes  0.9 seconds.
 File lengths (MBytes):  RWF=      5 Int=      0 D2E=      0 Chk=      1 Scr=      1
 Normal termination of Gaussian 09 at Wed Feb 19 03:46:00 2025.
